Donor,Acceptor,HOMO_D_eV,LUMO_D_eV,Eg_D_eV,Ehl_D_eV,HOMO_A_eV,LUMO_A_eV,Ehl_A_eV,Eg_A_eV,D_A_ratio_m_m,solvent,solvent_additive,annealing_temperature,hole_contact_layer,electron_contact_layer,PCE_percent,calc_PCE_percent,Voc_V,Jsc_mA_cm_pow_neg2,FF_percent,DA_SMILES,DA_SELFIES,DA_BigSMILES
PBTA-TF,IT-4F,-5.36,-3.4200000000000004,1.9,-1.94,-5.670384615384615,-4.058076923076923,-1.6123076923076916,0.7441176470588237,1:1,CF,DIO,100.0,PEDOT:PSS,PFN-Br,10.6,10.638144,0.73,20.24,72.0,CCCCCCCCCC(CCCCCC)n1nc2c(-c3ccc(C)s3)c(F)c(F)c(-c3ccc(-c4cc5c(-c6cc(F)c(C(CC)CCCCCC)s6)c6sc(C)cc6c(-c6cc(F)c(C(CC)CCCCCC)s6)c5s4)s3)c2n1.N#CC(C#N)=C1/C(=C/c2cc3sc4c(c3s2)C(c2ccc([Mo])cc2)(c2ccc([Mo])cc2)c2cc3c(cc2-4)C(c2ccc([Mo])cc2)(c2ccc([Mo])cc2)c2c-3sc3cc(/C=C4\C(=O)c5cc(F)c(F)cc5C4=C(C#N)C#N)sc23)C(=O)c2cc(F)c(F)cc21,[C][C][C][C][C][C][C][C][C][C][Branch1][#Branch1][C][C][C][C][C][C][N][N][=C][C][Branch1][O][C][=C][C][=C][Branch1][C][C][S][Ring1][=Branch1][=C][Branch1][C][F][C][Branch1][C][F][=C][Branch2][#Branch1][#Branch1][C][=C][C][=C][Branch2][=Branch1][N][C][=C][C][=C][Branch2][Ring1][Branch2][C][=C][C][Branch1][C][F][=C][Branch1][N][C][Branch1][Ring1][C][C][C][C][C][C][C][C][S][Ring1][#C][C][S][C][Branch1][C][C][=C][C][=Ring1][=Branch1][C][Branch2][Ring1][Branch2][C][=C][C][Branch1][C][F][=C][Branch1][N][C][Branch1][Ring1][C][C][C][C][C][C][C][C][S][Ring1][#C][=C][Ring2][Ring2][Branch2][S][Ring2][Ring2][O][S][Ring2][Ring2][S][C][Ring2][Branch1][=C][=N][Ring2][Branch1][P].[N][#C][C][Branch1][Ring1][C][#N][=C][/C][=Branch2][#Branch2][Branch1][=C][/C][=C][C][S][C][=C][Branch1][#Branch1][C][=Ring1][Branch1][S][Ring1][Branch2][C][Branch1][N][C][=C][C][=C][Branch1][C][Mo][C][=C][Ring1][#Branch1][Branch1][N][C][=C][C][=C][Branch1][C][Mo][C][=C][Ring1][#Branch1][C][=C][C][=C][Branch1][Branch2][C][=C][Ring1][=Branch1][Ring2][Ring1][=Branch2][C][Branch1][N][C][=C][C][=C][Branch1][C][Mo][C][=C][Ring1][#Branch1][Branch1][N][C][=C][C][=C][Branch1][C][Mo][C][=C][Ring1][#Branch1][C][=C][Ring2][Ring1][Branch1][S][C][C][=C][Branch2][Ring1][#C][/C][=C][\C][=Branch1][C][=O][C][=C][C][Branch1][C][F][=C][Branch1][C][F][C][=C][Ring1][Branch2][C][Ring1][N][=C][Branch1][Ring1][C][#N][C][#N][S][C][Ring2][Ring1][#Branch2][=Ring2][Ring1][#Branch1][C][=Branch1][C][=O][C][=C][C][Branch1][C][F][=C][Branch1][C][F][C][=C][Ring1][Branch2][Ring2][#Branch1][Ring1],{CCCCCCCCCC(CCCCCC)n1nc2c(-c3ccc([$])s3)c(F)c(F)c(-c3ccc(-c4cc5c(-c6cc(F)c(C(CC)CCCCCC)s6)c6sc([$])cc6c(-c6cc(F)c(C(CC)CCCCCC)s6)c5s4)s3)c2n1}.N#CC(C#N)=C1/C(=C/c2cc3sc4c(c3s2)C(c2ccc([Mo])cc2)(c2ccc([Mo])cc2)c2cc3c(cc2-4)C(c2ccc([Mo])cc2)(c2ccc([Mo])cc2)c2c-3sc3cc(/C=C4\C(=O)c5cc(F)c(F)cc5C4=C(C#N)C#N)sc23)C(=O)c2cc(F)c(F)cc21
PBTA-TF,IT-M,-5.36,-3.4200000000000004,1.9,-1.94,-5.513571428571429,-3.808,-1.705571428571429,1.604285714285714,1:1,THF,isopropanol,100.0,PEDOT:PSS,PFN-Br,12.0,11.815584,0.96,18.37,67.0,CCCCCCCCCC(CCCCCC)n1nc2c(-c3ccc(C)s3)c(F)c(F)c(-c3ccc(-c4cc5c(-c6cc(F)c(C(CC)CCCCCC)s6)c6sc(C)cc6c(-c6cc(F)c(C(CC)CCCCCC)s6)c5s4)s3)c2n1.Cc1ccc2c(c1)C(=C(C#N)C#N)/C(=C/c1cc3sc4c(c3s1)C(c1ccc([Mo])cc1)(c1ccc([Mo])cc1)c1cc3c(cc1-4)C(c1ccc([Mo])cc1)(c1ccc([Mo])cc1)c1c-3sc3cc(/C=C4\C(=O)c5ccc(C)cc5C4=C(C#N)C#N)sc13)C2=O,[C][C][C][C][C][C][C][C][C][C][Branch1][#Branch1][C][C][C][C][C][C][N][N][=C][C][Branch1][O][C][=C][C][=C][Branch1][C][C][S][Ring1][=Branch1][=C][Branch1][C][F][C][Branch1][C][F][=C][Branch2][#Branch1][#Branch1][C][=C][C][=C][Branch2][=Branch1][N][C][=C][C][=C][Branch2][Ring1][Branch2][C][=C][C][Branch1][C][F][=C][Branch1][N][C][Branch1][Ring1][C][C][C][C][C][C][C][C][S][Ring1][#C][C][S][C][Branch1][C][C][=C][C][=Ring1][=Branch1][C][Branch2][Ring1][Branch2][C][=C][C][Branch1][C][F][=C][Branch1][N][C][Branch1][Ring1][C][C][C][C][C][C][C][C][S][Ring1][#C][=C][Ring2][Ring2][Branch2][S][Ring2][Ring2][O][S][Ring2][Ring2][S][C][Ring2][Branch1][=C][=N][Ring2][Branch1][P].[C][C][=C][C][=C][C][=Branch1][Ring2][=C][Ring1][=Branch1][C][=Branch1][Branch2][=C][Branch1][Ring1][C][#N][C][#N][/C][=Branch2][#Branch2][C][=C][/C][=C][C][S][C][=C][Branch1][#Branch1][C][=Ring1][Branch1][S][Ring1][Branch2][C][Branch1][N][C][=C][C][=C][Branch1][C][Mo][C][=C][Ring1][#Branch1][Branch1][N][C][=C][C][=C][Branch1][C][Mo][C][=C][Ring1][#Branch1][C][=C][C][=C][Branch1][Branch2][C][=C][Ring1][=Branch1][Ring2][Ring1][=Branch2][C][Branch1][N][C][=C][C][=C][Branch1][C][Mo][C][=C][Ring1][#Branch1][Branch1][N][C][=C][C][=C][Branch1][C][Mo][C][=C][Ring1][#Branch1][C][=C][Ring2][Ring1][Branch1][S][C][C][=C][Branch2][Ring1][N][/C][=C][\C][=Branch1][C][=O][C][=C][C][=C][Branch1][C][C][C][=C][Ring1][#Branch1][C][Ring1][O][=C][Branch1][Ring1][C][#N][C][#N][S][C][Ring2][Ring1][=Branch2][=Ring2][Ring1][=Branch1][C][Ring2][=Branch1][P][=O],{CCCCCCCCCC(CCCCCC)n1nc2c(-c3ccc([$])s3)c(F)c(F)c(-c3ccc(-c4cc5c(-c6cc(F)c(C(CC)CCCCCC)s6)c6sc([$])cc6c(-c6cc(F)c(C(CC)CCCCCC)s6)c5s4)s3)c2n1}.Cc1ccc2c(c1)C(=C(C#N)C#N)/C(=C/c1cc3sc4c(c3s1)C(c1ccc([Mo])cc1)(c1ccc([Mo])cc1)c1cc3c(cc1-4)C(c1ccc([Mo])cc1)(c1ccc([Mo])cc1)c1c-3sc3cc(/C=C4\C(=O)c5ccc(C)cc5C4=C(C#N)C#N)sc13)C2=O
PBTA-TF,IT-M,-5.36,-3.4200000000000004,1.9,-1.94,-5.513571428571429,-3.808,-1.705571428571429,1.604285714285714,1:1,o-xylene,PN,100.0,PEDOT:PSS,PFN-Br,13.1,13.088016,0.97,18.74,72.0,CCCCCCCCCC(CCCCCC)n1nc2c(-c3ccc(C)s3)c(F)c(F)c(-c3ccc(-c4cc5c(-c6cc(F)c(C(CC)CCCCCC)s6)c6sc(C)cc6c(-c6cc(F)c(C(CC)CCCCCC)s6)c5s4)s3)c2n1.Cc1ccc2c(c1)C(=C(C#N)C#N)/C(=C/c1cc3sc4c(c3s1)C(c1ccc([Mo])cc1)(c1ccc([Mo])cc1)c1cc3c(cc1-4)C(c1ccc([Mo])cc1)(c1ccc([Mo])cc1)c1c-3sc3cc(/C=C4\C(=O)c5ccc(C)cc5C4=C(C#N)C#N)sc13)C2=O,[C][C][C][C][C][C][C][C][C][C][Branch1][#Branch1][C][C][C][C][C][C][N][N][=C][C][Branch1][O][C][=C][C][=C][Branch1][C][C][S][Ring1][=Branch1][=C][Branch1][C][F][C][Branch1][C][F][=C][Branch2][#Branch1][#Branch1][C][=C][C][=C][Branch2][=Branch1][N][C][=C][C][=C][Branch2][Ring1][Branch2][C][=C][C][Branch1][C][F][=C][Branch1][N][C][Branch1][Ring1][C][C][C][C][C][C][C][C][S][Ring1][#C][C][S][C][Branch1][C][C][=C][C][=Ring1][=Branch1][C][Branch2][Ring1][Branch2][C][=C][C][Branch1][C][F][=C][Branch1][N][C][Branch1][Ring1][C][C][C][C][C][C][C][C][S][Ring1][#C][=C][Ring2][Ring2][Branch2][S][Ring2][Ring2][O][S][Ring2][Ring2][S][C][Ring2][Branch1][=C][=N][Ring2][Branch1][P].[C][C][=C][C][=C][C][=Branch1][Ring2][=C][Ring1][=Branch1][C][=Branch1][Branch2][=C][Branch1][Ring1][C][#N][C][#N][/C][=Branch2][#Branch2][C][=C][/C][=C][C][S][C][=C][Branch1][#Branch1][C][=Ring1][Branch1][S][Ring1][Branch2][C][Branch1][N][C][=C][C][=C][Branch1][C][Mo][C][=C][Ring1][#Branch1][Branch1][N][C][=C][C][=C][Branch1][C][Mo][C][=C][Ring1][#Branch1][C][=C][C][=C][Branch1][Branch2][C][=C][Ring1][=Branch1][Ring2][Ring1][=Branch2][C][Branch1][N][C][=C][C][=C][Branch1][C][Mo][C][=C][Ring1][#Branch1][Branch1][N][C][=C][C][=C][Branch1][C][Mo][C][=C][Ring1][#Branch1][C][=C][Ring2][Ring1][Branch1][S][C][C][=C][Branch2][Ring1][N][/C][=C][\C][=Branch1][C][=O][C][=C][C][=C][Branch1][C][C][C][=C][Ring1][#Branch1][C][Ring1][O][=C][Branch1][Ring1][C][#N][C][#N][S][C][Ring2][Ring1][=Branch2][=Ring2][Ring1][=Branch1][C][Ring2][=Branch1][P][=O],{CCCCCCCCCC(CCCCCC)n1nc2c(-c3ccc([$])s3)c(F)c(F)c(-c3ccc(-c4cc5c(-c6cc(F)c(C(CC)CCCCCC)s6)c6sc([$])cc6c(-c6cc(F)c(C(CC)CCCCCC)s6)c5s4)s3)c2n1}.Cc1ccc2c(c1)C(=C(C#N)C#N)/C(=C/c1cc3sc4c(c3s1)C(c1ccc([Mo])cc1)(c1ccc([Mo])cc1)c1cc3c(cc1-4)C(c1ccc([Mo])cc1)(c1ccc([Mo])cc1)c1c-3sc3cc(/C=C4\C(=O)c5ccc(C)cc5C4=C(C#N)C#N)sc13)C2=O
PBDB-T-SF,IT-4F,-5.41,-3.62,1.8,-1.79,-5.670384615384615,-4.058076923076923,-1.6123076923076916,0.7441176470588237,1:1,CB,DIO,25.0,MoOx,ZnO,13.1,13.1009472,0.88,20.88,71.3,Cc1cc2c(-c3cc(F)c([Cr])s3)c3sc(-c4ccc(-c5sc(-c6cccs6)c6c5C(=O)c5c([Cr])sc([Cr])c5C6=O)s4)cc3c(-c3cc(F)c([Cr])s3)c2s1.N#CC(C#N)=C1/C(=C/c2cc3sc4c(c3s2)C(c2ccc([Mo])cc2)(c2ccc([Mo])cc2)c2cc3c(cc2-4)C(c2ccc([Mo])cc2)(c2ccc([Mo])cc2)c2c-3sc3cc(/C=C4\C(=O)c5cc(F)c(F)cc5C4=C(C#N)C#N)sc23)C(=O)c2cc(F)c(F)cc21,[C][C][=C][C][=C][Branch1][=C][C][=C][C][Branch1][C][F][=C][Branch1][C][Cr][S][Ring1][#Branch1][C][S][C][Branch2][Ring2][P][C][=C][C][=C][Branch2][Ring2][=Branch1][C][S][C][Branch1][Branch2][C][=C][C][=C][S][Ring1][Branch1][=C][C][=Ring1][#Branch2][C][=Branch1][C][=O][C][=C][Branch1][C][Cr][S][C][Branch1][C][Cr][=C][Ring1][#Branch1][C][Ring1][N][=O][S][Ring2][Ring1][#Branch2][=C][C][=Ring2][Ring1][#C][C][Branch1][=C][C][=C][C][Branch1][C][F][=C][Branch1][C][Cr][S][Ring1][#Branch1][=C][Ring2][Ring2][P][S][Ring2][Branch1][Ring2].[N][#C][C][Branch1][Ring1][C][#N][=C][/C][=Branch2][#Branch2][Branch1][=C][/C][=C][C][S][C][=C][Branch1][#Branch1][C][=Ring1][Branch1][S][Ring1][Branch2][C][Branch1][N][C][=C][C][=C][Branch1][C][Mo][C][=C][Ring1][#Branch1][Branch1][N][C][=C][C][=C][Branch1][C][Mo][C][=C][Ring1][#Branch1][C][=C][C][=C][Branch1][Branch2][C][=C][Ring1][=Branch1][Ring2][Ring1][=Branch2][C][Branch1][N][C][=C][C][=C][Branch1][C][Mo][C][=C][Ring1][#Branch1][Branch1][N][C][=C][C][=C][Branch1][C][Mo][C][=C][Ring1][#Branch1][C][=C][Ring2][Ring1][Branch1][S][C][C][=C][Branch2][Ring1][#C][/C][=C][\C][=Branch1][C][=O][C][=C][C][Branch1][C][F][=C][Branch1][C][F][C][=C][Ring1][Branch2][C][Ring1][N][=C][Branch1][Ring1][C][#N][C][#N][S][C][Ring2][Ring1][#Branch2][=Ring2][Ring1][#Branch1][C][=Branch1][C][=O][C][=C][C][Branch1][C][F][=C][Branch1][C][F][C][=C][Ring1][Branch2][Ring2][#Branch1][Ring1],{[$]c1cc2c(-c3cc(F)c([Cr])s3)c3sc(-c4ccc(-c5sc(-c6ccc([$])s6)c6c5C(=O)c5c([Cr])sc([Cr])c5C6=O)s4)cc3c(-c3cc(F)c([Cr])s3)c2s1}.N#CC(C#N)=C1/C(=C/c2cc3sc4c(c3s2)C(c2ccc([Mo])cc2)(c2ccc([Mo])cc2)c2cc3c(cc2-4)C(c2ccc([Mo])cc2)(c2ccc([Mo])cc2)c2c-3sc3cc(/C=C4\C(=O)c5cc(F)c(F)cc5C4=C(C#N)C#N)sc23)C(=O)c2cc(F)c(F)cc21
PBDB-T,ITIC,-5.297777777777778,-3.4170000000000003,1.7681818181818183,-1.8807777777777777,-5.574285714285715,-3.9143137254901954,-1.659971988795519,1.5857894736842106,1:1,CB,DIO,25.0,MoOx,ZnO,11.05,11.050767,0.9,17.03,72.1,Cc1ccc(-c2sc(-c3ccc(-c4cc5c(-c6ccc([Cr])s6)c6sc(C)cc6c(-c6ccc([Cr])s6)c5s4)s3)c3c2C(=O)c2c([Cr])sc([Cr])c2C3=O)s1.N#CC(C#N)=C1/C(=C/c2cc3sc4c(c3s2)C(c2ccc([Mo])cc2)(c2ccc([Mo])cc2)c2cc3c(cc2-4)C(c2ccc([Mo])cc2)(c2ccc([Mo])cc2)c2c-3sc3cc(/C=C4\C(=O)c5ccccc5C4=C(C#N)C#N)sc23)C(=O)c2ccccc21,[C][C][=C][C][=C][Branch2][#Branch1][O][C][S][C][Branch2][Branch1][O][C][=C][C][=C][Branch2][Ring2][S][C][=C][C][=C][Branch1][O][C][=C][C][=C][Branch1][C][Cr][S][Ring1][=Branch1][C][S][C][Branch1][C][C][=C][C][=Ring1][=Branch1][C][Branch1][O][C][=C][C][=C][Branch1][C][Cr][S][Ring1][=Branch1][=C][Ring2][Ring1][=Branch1][S][Ring2][Ring1][=Branch2][S][Ring2][Ring1][=C][=C][C][=Ring2][Ring2][Ring1][C][=Branch1][C][=O][C][=C][Branch1][C][Cr][S][C][Branch1][C][Cr][=C][Ring1][#Branch1][C][Ring1][N][=O][S][Ring2][Branch1][Ring1].[N][#C][C][Branch1][Ring1][C][#N][=C][/C][=Branch2][=Branch2][#C][=C][/C][=C][C][S][C][=C][Branch1][#Branch1][C][=Ring1][Branch1][S][Ring1][Branch2][C][Branch1][N][C][=C][C][=C][Branch1][C][Mo][C][=C][Ring1][#Branch1][Branch1][N][C][=C][C][=C][Branch1][C][Mo][C][=C][Ring1][#Branch1][C][=C][C][=C][Branch1][Branch2][C][=C][Ring1][=Branch1][Ring2][Ring1][=Branch2][C][Branch1][N][C][=C][C][=C][Branch1][C][Mo][C][=C][Ring1][#Branch1][Branch1][N][C][=C][C][=C][Branch1][C][Mo][C][=C][Ring1][#Branch1][C][=C][Ring2][Ring1][Branch1][S][C][C][=C][Branch2][Ring1][=Branch2][/C][=C][\C][=Branch1][C][=O][C][=C][C][=C][C][=C][Ring1][=Branch1][C][Ring1][#Branch2][=C][Branch1][Ring1][C][#N][C][#N][S][C][Ring2][Ring1][Branch2][=Ring2][Ring1][Branch1][C][=Branch1][C][=O][C][=C][C][=C][C][=C][Ring1][=Branch1][Ring2][=Branch1][#C],{[$]c1ccc(-c2sc(-c3ccc(-c4cc5c(-c6ccc([Cr])s6)c6sc([$])cc6c(-c6ccc([Cr])s6)c5s4)s3)c3c2C(=O)c2c([Cr])sc([Cr])c2C3=O)s1}.N#CC(C#N)=C1/C(=C/c2cc3sc4c(c3s2)C(c2ccc([Mo])cc2)(c2ccc([Mo])cc2)c2cc3c(cc2-4)C(c2ccc([Mo])cc2)(c2ccc([Mo])cc2)c2c-3sc3cc(/C=C4\C(=O)c5ccccc5C4=C(C#N)C#N)sc23)C(=O)c2ccccc21
PCDTBT-C12,SM2,-5.23,-3.26,1.97,-1.9700000000000009,-5.98,-3.62,-2.3600000000000003,2.36,1:2,DCB,_,90.0,PEDOT:PSS,LiF,0.74,0.73593,1.11,2.21,30.0,Cc1ccc2c3ccc(-c4ccc(-c5c(O[Mn])c(O[Mn])c(-c6ccc(C)s6)c6nsnc56)s4)cc3n([Ti])c2c1.CCCCCCCCCCCCN1C(=O)c2cccc3c(-c4ccc(-c5ccc(-c6ccc(-c7ccc8c9c(cccc79)C(=O)N(CCCCCCCCCCCC)C8=O)s6)c(F)c5)s4)ccc(c23)C1=O,[C][C][=C][C][=C][C][=C][C][=C][Branch2][Ring2][=C][C][=C][C][=C][Branch2][Ring2][Ring1][C][=C][Branch1][Ring1][O][Mn][C][Branch1][Ring1][O][Mn][=C][Branch1][O][C][=C][C][=C][Branch1][C][C][S][Ring1][=Branch1][C][=N][S][N][=C][Ring2][Ring1][Ring1][Ring1][Branch1][S][Ring2][Ring1][Branch2][C][=C][Ring2][Ring1][=C][N][Branch1][C][Ti][C][Ring2][Ring2][C][=C][Ring2][Ring2][=Branch1].[C][C][C][C][C][C][C][C][C][C][C][C][N][C][=Branch1][C][=O][C][=C][C][=C][C][=C][Branch2][=Branch1][=C][C][=C][C][=C][Branch2][=Branch1][Ring1][C][=C][C][=C][Branch2][Branch1][Ring2][C][=C][C][=C][Branch2][Ring2][=Branch2][C][=C][C][=C][C][=C][Branch1][=Branch2][C][=C][C][=C][Ring1][#Branch2][Ring1][=Branch1][C][=Branch1][C][=O][N][Branch1][=N][C][C][C][C][C][C][C][C][C][C][C][C][C][Ring2][Ring1][#Branch1][=O][S][Ring2][Ring1][S][C][Branch1][C][F][=C][Ring2][Ring2][#Branch1][S][Ring2][Ring2][N][C][=C][C][=Branch1][Branch2][=C][Ring2][Branch1][=Branch1][Ring2][Branch1][C][C][Ring2][Branch1][#Branch2][=O],{[$]c1ccc2c3ccc(-c4ccc(-c5c(O[Mn])c(O[Mn])c(-c6ccc([$])s6)c6nsnc56)s4)cc3n([Ti])c2c1}.CCCCCCCCCCCCN1C(=O)c2cccc3c(-c4ccc(-c5ccc(-c6ccc(-c7ccc8c9c(cccc79)C(=O)N(CCCCCCCCCCCC)C8=O)s6)c(F)c5)s4)ccc(c23)C1=O
PCDTBT-C12,SM3,-5.23,-3.26,1.97,-1.9700000000000009,-5.95,-3.68,-2.27,2.27,1:2,DCB,_,90.0,PEDOT:PSS,LiF,0.56,0.55917,1.09,1.71,30.0,Cc1ccc2c3ccc(-c4ccc(-c5c(O[Mn])c(O[Mn])c(-c6ccc(C)s6)c6nsnc56)s4)cc3n([Ti])c2c1.CCCCCCCCN1C(=O)c2cccc3c(-c4ccc(-c5cc(O[Ti])c(-c6ccc(-c7ccc8c9c(cccc79)C(=O)N(CCCCCCCC)C8=O)s6)cc5F)s4)ccc(c23)C1=O,[C][C][=C][C][=C][C][=C][C][=C][Branch2][Ring2][=C][C][=C][C][=C][Branch2][Ring2][Ring1][C][=C][Branch1][Ring1][O][Mn][C][Branch1][Ring1][O][Mn][=C][Branch1][O][C][=C][C][=C][Branch1][C][C][S][Ring1][=Branch1][C][=N][S][N][=C][Ring2][Ring1][Ring1][Ring1][Branch1][S][Ring2][Ring1][Branch2][C][=C][Ring2][Ring1][=C][N][Branch1][C][Ti][C][Ring2][Ring2][C][=C][Ring2][Ring2][=Branch1].[C][C][C][C][C][C][C][C][N][C][=Branch1][C][=O][C][=C][C][=C][C][=C][Branch2][=Branch1][N][C][=C][C][=C][Branch2][Branch1][P][C][=C][C][Branch1][Ring1][O][Ti][=C][Branch2][Ring2][S][C][=C][C][=C][Branch2][Ring2][Branch1][C][=C][C][=C][C][=C][Branch1][=Branch2][C][=C][C][=C][Ring1][#Branch2][Ring1][=Branch1][C][=Branch1][C][=O][N][Branch1][=Branch2][C][C][C][C][C][C][C][C][C][Ring2][Ring1][Ring1][=O][S][Ring2][Ring1][N][C][=C][Ring2][Ring2][Ring2][F][S][Ring2][Ring2][#Branch2][C][=C][C][=Branch1][Branch2][=C][Ring2][Branch1][Ring2][Ring2][Ring2][S][C][Ring2][Branch1][Branch2][=O],{[$]c1ccc2c3ccc(-c4ccc(-c5c(O[Mn])c(O[Mn])c(-c6ccc([$])s6)c6nsnc56)s4)cc3n([Ti])c2c1}.CCCCCCCCN1C(=O)c2cccc3c(-c4ccc(-c5cc(O[Ti])c(-c6ccc(-c7ccc8c9c(cccc79)C(=O)N(CCCCCCCC)C8=O)s6)cc5F)s4)ccc(c23)C1=O
PCDTBT-C12,SM4,-5.23,-3.26,1.97,-1.9700000000000009,-5.8,-3.65,-2.15,2.15,1:2,DCB,_,90.0,PEDOT:PSS,LiF,0.13,0.128464,1.24,0.37,28.0,Cc1ccc2c3ccc(-c4ccc(-c5c(O[Mn])c(O[Mn])c(-c6ccc(C)s6)c6nsnc56)s4)cc3n([Ti])c2c1.CCCCCCCCN1C(=O)c2cccc3c(-c4ccc(-c5cc(O[Ti])c(-c6ccc(-c7ccc8c9c(cccc79)C(=O)N(CCCCCCCC)C8=O)s6)cc5O[Ti])s4)ccc(c23)C1=O,[C][C][=C][C][=C][C][=C][C][=C][Branch2][Ring2][=C][C][=C][C][=C][Branch2][Ring2][Ring1][C][=C][Branch1][Ring1][O][Mn][C][Branch1][Ring1][O][Mn][=C][Branch1][O][C][=C][C][=C][Branch1][C][C][S][Ring1][=Branch1][C][=N][S][N][=C][Ring2][Ring1][Ring1][Ring1][Branch1][S][Ring2][Ring1][Branch2][C][=C][Ring2][Ring1][=C][N][Branch1][C][Ti][C][Ring2][Ring2][C][=C][Ring2][Ring2][=Branch1].[C][C][C][C][C][C][C][C][N][C][=Branch1][C][=O][C][=C][C][=C][C][=C][Branch2][=Branch1][=N][C][=C][C][=C][Branch2][=Branch1][C][C][=C][C][Branch1][Ring1][O][Ti][=C][Branch2][Ring2][S][C][=C][C][=C][Branch2][Ring2][Branch1][C][=C][C][=C][C][=C][Branch1][=Branch2][C][=C][C][=C][Ring1][#Branch2][Ring1][=Branch1][C][=Branch1][C][=O][N][Branch1][=Branch2][C][C][C][C][C][C][C][C][C][Ring2][Ring1][Ring1][=O][S][Ring2][Ring1][N][C][=C][Ring2][Ring2][Ring2][O][Ti][S][Ring2][Ring2][O][C][=C][C][=Branch1][Branch2][=C][Ring2][Branch1][Branch1][Ring2][Ring2][P][C][Ring2][Branch1][=Branch2][=O],{[$]c1ccc2c3ccc(-c4ccc(-c5c(O[Mn])c(O[Mn])c(-c6ccc([$])s6)c6nsnc56)s4)cc3n([Ti])c2c1}.CCCCCCCCN1C(=O)c2cccc3c(-c4ccc(-c5cc(O[Ti])c(-c6ccc(-c7ccc8c9c(cccc79)C(=O)N(CCCCCCCC)C8=O)s6)cc5O[Ti])s4)ccc(c23)C1=O
PTB7-Th,SFBRCN,-5.21,-3.542368421052632,1.5883333333333332,-1.667631578947368,-5.93,-3.86,-2.07,2.05,1:1.2,CB,DIO,25.0,MoOx,ZnO,9.9,9.93024,0.9,17.24,64.0,Cc1cc2c(-c3ccc([Cr])s3)c3sc(-c4sc(C)c5c(F)c(C(=O)O[Cr])sc45)cc3c(-c3ccc([Cr])s3)c2s1.CCn1c(=C(C#N)C#N)s/c(=C\c2ccc(-c3ccc4c(c3)C3(c5ccc(O[Ti])cc5-c5cc(O[Ti])ccc53)c3cc(-c5ccc(/C=c6\sc(=C(C#N)C#N)n(CC)c6=O)c6nsnc56)ccc3-4)c3nsnc23)c1=O,[C][C][=C][C][=C][Branch1][O][C][=C][C][=C][Branch1][C][Cr][S][Ring1][=Branch1][C][S][C][Branch2][Ring1][O][C][S][C][Branch1][C][C][=C][C][Branch1][C][F][=C][Branch1][#Branch1][C][=Branch1][C][=O][O][Cr][S][C][=Ring1][=C][Ring1][#Branch2][=C][C][=Ring2][Ring1][Ring1][C][Branch1][O][C][=C][C][=C][Branch1][C][Cr][S][Ring1][=Branch1][=C][Ring2][Ring2][Ring1][S][Ring2][Ring2][=Branch1].[C][C][N][C][=Branch1][Branch2][=C][Branch1][Ring1][C][#N][C][#N][S][/C][=Branch2][Branch2][P][=C][\C][=C][C][=C][Branch2][#Branch1][#C][C][=C][C][=C][C][=Branch1][Ring2][=C][Ring1][=Branch1][C][Branch2][Ring1][O][C][=C][C][=C][Branch1][Ring1][O][Ti][C][=C][Ring1][Branch2][C][=C][C][Branch1][Ring1][O][Ti][=C][C][=C][Ring1][Branch2][Ring1][P][C][=C][C][Branch2][Ring2][Branch2][C][=C][C][=C][Branch2][Ring1][#Branch1][/C][=C][\S][C][=Branch1][Branch2][=C][Branch1][Ring1][C][#N][C][#N][N][Branch1][Ring1][C][C][C][Ring1][N][=O][C][=N][S][N][=C][Ring2][Ring1][#Branch1][Ring1][Branch1][=C][C][=C][Ring2][Ring1][=N][Ring2][Ring2][P][C][=N][S][N][=C][Ring2][Branch1][=N][Ring1][Branch1][C][Ring2][=Branch1][Branch2][=O],{[$]c1cc2c(-c3ccc([Cr])s3)c3sc(-c4sc([$])c5c(F)c(C(=O)O[Cr])sc45)cc3c(-c3ccc([Cr])s3)c2s1}.CCn1c(=C(C#N)C#N)s/c(=C\c2ccc(-c3ccc4c(c3)C3(c5ccc(O[Ti])cc5-c5cc(O[Ti])ccc53)c3cc(-c5ccc(/C=c6\sc(=C(C#N)C#N)n(CC)c6=O)c6nsnc56)ccc3-4)c3nsnc23)c1=O