Donor,Acceptor,HOMO_D_eV,LUMO_D_eV,HOMO_A_eV,LUMO_A_eV,D_A_ratio_m_m,solvent,solvent_additive,annealing_temperature,hole_contact_layer,electron_contact_layer,PCE_percent,calc_PCE_percent,Voc_V,Jsc_mA_cm_pow_neg2,FF_percent,DA_SMILES,DA_SELFIES,DA_BigSMILES
PBB-T,IT-2F,-5.4,-3.3,-5.665,-4.095,0.833,CB,_,150.0,PEDOT:PSS,PDINO,13.3,13.31,0.91,20.9,70.0,CCCCCCC(CCCC)CSc1cc(-c2nc3cc4sc(-c5cc(SCC(CCCC)CCCCCC)c(-c6cc7c(-c8ccc(CC(CC)CCCC)s8)c8sc(C)cc8c(-c8ccc(CC(CC)CCCC)s8)c7s6)s5)nc4cc3s2)sc1C.CCCCCCc1ccc(C2(c3ccc(CCCCCC)cc3)c3cc4c(cc3-c3sc5cc(/C=C6\C(=O)c7cc(F)c(F)cc7C6=C(C#N)C#N)sc5c32)C(c2ccc(CCCCCC)cc2)(c2ccc(CCCCCC)cc2)c2c-4sc3cc(/C=C4\C(=O)c5cc(F)c(F)cc5C4=C(C#N)C#N)sc23)cc1,[C][C][C][C][C][C][C][Branch1][Branch1][C][C][C][C][C][S][C][C][=C][Branch2][=Branch2][Branch2][C][=N][C][=C][C][S][C][Branch2][#Branch1][S][C][=C][C][Branch1][S][S][C][C][Branch1][Branch1][C][C][C][C][C][C][C][C][C][C][=C][Branch2][=Branch1][Ring2][C][=C][C][=C][Branch2][Ring1][Ring2][C][=C][C][=C][Branch1][O][C][C][Branch1][Ring1][C][C][C][C][C][C][S][Ring1][=N][C][S][C][Branch1][C][C][=C][C][=Ring1][=Branch1][C][Branch2][Ring1][Ring2][C][=C][C][=C][Branch1][O][C][C][Branch1][Ring1][C][C][C][C][C][C][S][Ring1][=N][=C][Ring2][Ring2][Ring2][S][Ring2][Ring2][#Branch1][S][Ring2][Branch1][=Branch2][=N][C][=Ring2][Branch1][=C][C][=C][Ring2][=Branch1][C][S][Ring2][=Branch1][Branch1][S][C][=Ring2][=Branch1][#Branch2][C].[C][C][C][C][C][C][C][=C][C][=C][Branch2][N][Branch2][C][Branch1][P][C][=C][C][=C][Branch1][#Branch1][C][C][C][C][C][C][C][=C][Ring1][N][C][=C][C][=C][Branch2][Branch1][#Branch1][C][=C][Ring1][=Branch1][C][S][C][C][=C][Branch2][Ring1][#C][/C][=C][\C][=Branch1][C][=O][C][=C][C][Branch1][C][F][=C][Branch1][C][F][C][=C][Ring1][Branch2][C][Ring1][N][=C][Branch1][Ring1][C][#N][C][#N][S][C][=Ring2][Ring1][#Branch1][C][=Ring2][Ring1][#Branch2][Ring2][Ring2][=N][C][Branch1][P][C][=C][C][=C][Branch1][#Branch1][C][C][C][C][C][C][C][=C][Ring1][N][Branch1][P][C][=C][C][=C][Branch1][#Branch1][C][C][C][C][C][C][C][=C][Ring1][N][C][=C][Ring2][Branch1][=Branch2][S][C][C][=C][Branch2][Ring1][#C][/C][=C][\C][=Branch1][C][=O][C][=C][C][Branch1][C][F][=C][Branch1][C][F][C][=C][Ring1][Branch2][C][Ring1][N][=C][Branch1][Ring1][C][#N][C][#N][S][C][Ring2][Ring1][#Branch2][=Ring2][Ring1][#Branch1][C][=C][Ring2][Branch2][=Branch1],{CCCCCCC(CCCC)CSc1cc(-c2nc3cc4sc(-c5cc(SCC(CCCC)CCCCCC)c(-c6cc7c(-c8ccc(CC(CC)CCCC)s8)c8sc([$])cc8c(-c8ccc(CC(CC)CCCC)s8)c7s6)s5)nc4cc3s2)sc1[$]}.CCCCCCc1ccc(C2(c3ccc(CCCCCC)cc3)c3cc4c(cc3-c3sc5cc(/C=C6\C(=O)c7cc(F)c(F)cc7C6=C(C#N)C#N)sc5c32)C(c2ccc(CCCCCC)cc2)(c2ccc(CCCCCC)cc2)c2c-4sc3cc(/C=C4\C(=O)c5cc(F)c(F)cc5C4=C(C#N)C#N)sc23)cc1
PFBDB-T,C8-ITIC,-5.47,-3.46,-5.63,-3.91,0.8,CB,_,25.0,MoOx,ZnO,12.5,12.57,0.93,19.59,69.0,CCCCCCC(CC)c1ccc(-c2c3cc(-c4sc(-c5sc(-c6cc(F)c(C)s6)c6c5C(=O)c5c(C(CC)CCCCCC)sc(C(CC)CCCCCC)c5C6=O)cc4F)sc3c(-c3ccc(C(CC)CCCCCC)s3)c3cc(C)sc23)s1.CCCCCCc1ccc(C2(c3ccc(CCCCCC)cc3)c3cc(/C=C4\C(=O)c5ccccc5C4=C(C#N)C#N)sc3-c3sc4cc5c6c(sc5cc4c32)-c2sc(/C=C3\C(=O)c4ccccc4C3=C(C#N)C#N)cc2C6(c2ccc(CCCCCC)cc2)c2ccc(CCCCCC)cc2)cc1,[C][C][C][C][C][C][C][Branch1][Ring1][C][C][C][=C][C][=C][Branch2][=Branch2][#C][C][=C][C][=C][Branch2][=Branch1][=C][C][S][C][Branch2][=Branch1][C][C][S][C][Branch1][=C][C][=C][C][Branch1][C][F][=C][Branch1][C][C][S][Ring1][#Branch1][=C][C][=Ring1][N][C][=Branch1][C][=O][C][=C][Branch1][N][C][Branch1][Ring1][C][C][C][C][C][C][C][C][S][C][Branch1][N][C][Branch1][Ring1][C][C][C][C][C][C][C][C][=C][Ring2][Ring1][#Branch1][C][Ring2][Ring1][N][=O][=C][C][=Ring2][Ring2][N][F][S][C][Ring2][Branch1][C][=C][Branch2][Ring1][Branch1][C][=C][C][=C][Branch1][N][C][Branch1][Ring1][C][C][C][C][C][C][C][C][S][Ring1][=C][C][C][=C][Branch1][C][C][S][C][Ring2][=Branch1][Branch2][=Ring1][=Branch1][S][Ring2][=Branch1][=N].[C][C][C][C][C][C][C][=C][C][=C][Branch2][O][#Branch1][C][Branch1][P][C][=C][C][=C][Branch1][#Branch1][C][C][C][C][C][C][C][=C][Ring1][N][C][C][=C][Branch2][Ring1][=Branch2][/C][=C][\C][=Branch1][C][=O][C][=C][C][=C][C][=C][Ring1][=Branch1][C][Ring1][#Branch2][=C][Branch1][Ring1][C][#N][C][#N][S][C][=Ring2][Ring1][Branch1][C][S][C][=C][C][C][=C][Branch1][#C][S][C][=Ring1][Branch1][C][=C][Ring1][=Branch2][C][=Ring1][N][Ring2][Ring2][=C][C][S][C][Branch2][Ring1][=Branch2][/C][=C][\C][=Branch1][C][=O][C][=C][C][=C][C][=C][Ring1][=Branch1][C][Ring1][#Branch2][=C][Branch1][Ring1][C][#N][C][#N][=C][C][=Ring2][Ring1][Branch1][C][Ring2][Ring1][=N][Branch1][P][C][=C][C][=C][Branch1][#Branch1][C][C][C][C][C][C][C][=C][Ring1][N][C][=C][C][=C][Branch1][#Branch1][C][C][C][C][C][C][C][=C][Ring1][N][C][=C][Ring2][Branch2][C],{CCCCCCC(CC)c1ccc(-c2c3cc(-c4sc(-c5sc(-c6cc(F)c([$])s6)c6c5C(=O)c5c(C(CC)CCCCCC)sc(C(CC)CCCCCC)c5C6=O)cc4F)sc3c(-c3ccc(C(CC)CCCCCC)s3)c3cc([$])sc23)s1}.CCCCCCc1ccc(C2(c3ccc(CCCCCC)cc3)c3cc(/C=C4\C(=O)c5ccccc5C4=C(C#N)C#N)sc3-c3sc4cc5c6c(sc5cc4c32)-c2sc(/C=C3\C(=O)c4ccccc4C3=C(C#N)C#N)cc2C6(c2ccc(CCCCCC)cc2)c2ccc(CCCCCC)cc2)cc1
P_TBTT-BTT,ICz-Rd2,-5.15,-3.58,-5.59,-3.88,1.0,CF,_,40.0,PEDOT:PSS,PFN,7.88,7.88,1.04,14.04,54.0,CCCCCCCCc1ccc(-c2sc(-c3ccc(CCCCCCCC)s3)c3c4cc(-c5ccc(-c6ccc(-c7ccc(C)s7)c7nsnc67)s5)sc4c4sc(C)cc4c23)s1.CCCCC(CC)Cn1c2cc(-c3ccc(/C=C4\SC(=S)N(CC)C4=O)c4nsnc34)ccc2c2cc3c(cc21)c1ccc(-c2ccc(/C=C4\SC(=S)N(CC)C4=O)c4nsnc24)cc1n3CC(CC)CCCC,[C][C][C][C][C][C][C][C][C][=C][C][=C][Branch2][#Branch1][=Branch2][C][S][C][Branch2][Ring1][C][C][=C][C][=C][Branch1][=Branch2][C][C][C][C][C][C][C][C][S][Ring1][=N][=C][C][C][=C][Branch2][Ring2][Branch1][C][=C][C][=C][Branch2][Ring1][#Branch2][C][=C][C][=C][Branch1][O][C][=C][C][=C][Branch1][C][C][S][Ring1][=Branch1][C][=N][S][N][=C][Ring1][#C][Ring1][Branch1][S][Ring2][Ring1][Ring2][S][C][=Ring2][Ring1][=Branch2][C][S][C][Branch1][C][C][=C][C][=Ring1][=Branch1][C][=Ring2][Ring2][P][Ring2][Ring1][P][S][Ring2][Branch1][=Branch1].[C][C][C][C][C][Branch1][Ring1][C][C][C][N][C][=C][C][Branch2][Ring1][P][C][=C][C][=C][Branch1][P][/C][=C][\S][C][=Branch1][C][=S][N][Branch1][Ring1][C][C][C][Ring1][Branch2][=O][C][=N][S][N][=C][Ring2][Ring1][Ring1][Ring1][Branch1][=C][C][=C][Ring2][Ring1][=Branch2][C][=C][C][=C][Branch1][Branch2][C][=C][Ring1][=Branch1][Ring2][Ring1][S][C][=C][C][=C][Branch2][Ring1][P][C][=C][C][=C][Branch1][P][/C][=C][\S][C][=Branch1][C][=S][N][Branch1][Ring1][C][C][C][Ring1][Branch2][=O][C][=N][S][N][=C][Ring2][Ring1][Ring1][Ring1][Branch1][C][=C][Ring2][Ring1][=Branch2][N][Ring2][Ring1][=C][C][C][Branch1][Ring1][C][C][C][C][C][C],{CCCCCCCCc1ccc(-c2sc(-c3ccc(CCCCCCCC)s3)c3c4cc(-c5ccc(-c6ccc(-c7ccc([$])s7)c7nsnc67)s5)sc4c4sc([$])cc4c23)s1}.CCCCC(CC)Cn1c2cc(-c3ccc(/C=C4\SC(=S)N(CC)C4=O)c4nsnc34)ccc2c2cc3c(cc21)c1ccc(-c2ccc(/C=C4\SC(=S)N(CC)C4=O)c4nsnc24)cc1n3CC(CC)CCCC
P_TBTT-BTT,ICz-RdCN2,-5.15,-3.58,-5.58,-3.98,1.0,CF,_,40.0,PEDOT:PSS,PFN,9.76,9.76,1.01,15.58,62.0,CCCCCCCCc1ccc(-c2sc(-c3ccc(CCCCCCCC)s3)c3c4cc(-c5ccc(-c6ccc(-c7ccc(C)s7)c7nsnc67)s5)sc4c4sc(C)cc4c23)s1.CCCCC(CC)Cn1c2cc(-c3ccc(/C=c4\sc(=C(C#N)C#N)n(CC)c4=O)c4nsnc34)ccc2c2cc3c(cc21)c1ccc(-c2ccc(/C=c4\sc(=C(C#N)C#N)n(CC)c4=O)c4nsnc24)cc1n3CC(CC)CCCC,[C][C][C][C][C][C][C][C][C][=C][C][=C][Branch2][#Branch1][=Branch2][C][S][C][Branch2][Ring1][C][C][=C][C][=C][Branch1][=Branch2][C][C][C][C][C][C][C][C][S][Ring1][=N][=C][C][C][=C][Branch2][Ring2][Branch1][C][=C][C][=C][Branch2][Ring1][#Branch2][C][=C][C][=C][Branch1][O][C][=C][C][=C][Branch1][C][C][S][Ring1][=Branch1][C][=N][S][N][=C][Ring1][#C][Ring1][Branch1][S][Ring2][Ring1][Ring2][S][C][=Ring2][Ring1][=Branch2][C][S][C][Branch1][C][C][=C][C][=Ring1][=Branch1][C][=Ring2][Ring2][P][Ring2][Ring1][P][S][Ring2][Branch1][=Branch1].[C][C][C][C][C][Branch1][Ring1][C][C][C][N][C][=C][C][Branch2][Ring2][Branch2][C][=C][C][=C][Branch2][Ring1][#Branch1][/C][=C][\S][C][=Branch1][Branch2][=C][Branch1][Ring1][C][#N][C][#N][N][Branch1][Ring1][C][C][C][Ring1][N][=O][C][=N][S][N][=C][Ring2][Ring1][#Branch1][Ring1][Branch1][=C][C][=C][Ring2][Ring1][=N][C][=C][C][=C][Branch1][Branch2][C][=C][Ring1][=Branch1][Ring2][Ring2][Ring2][C][=C][C][=C][Branch2][Ring2][Branch2][C][=C][C][=C][Branch2][Ring1][#Branch1][/C][=C][\S][C][=Branch1][Branch2][=C][Branch1][Ring1][C][#N][C][#N][N][Branch1][Ring1][C][C][C][Ring1][N][=O][C][=N][S][N][=C][Ring2][Ring1][#Branch1][Ring1][Branch1][C][=C][Ring2][Ring1][=N][N][Ring2][Ring2][C][C][C][Branch1][Ring1][C][C][C][C][C][C],{CCCCCCCCc1ccc(-c2sc(-c3ccc(CCCCCCCC)s3)c3c4cc(-c5ccc(-c6ccc(-c7ccc([$])s7)c7nsnc67)s5)sc4c4sc([$])cc4c23)s1}.CCCCC(CC)Cn1c2cc(-c3ccc(/C=c4\sc(=C(C#N)C#N)n(CC)c4=O)c4nsnc34)ccc2c2cc3c(cc21)c1ccc(-c2ccc(/C=c4\sc(=C(C#N)C#N)n(CC)c4=O)c4nsnc24)cc1n3CC(CC)CCCC
PBZ-Cl,IT-4F,-5.39,-3.41,-5.66875,-4.060416666666667,1.0,Toluene,PN,25.0,MoOx,ZnO,9.7,9.67,0.8,17.7,68.3,CCCCCCCCC(CCCCCC)Cn1nc2c(-c3ccc(C)s3)c(F)c(F)c(-c3ccc(-c4cc5c(-c6cc(Cl)c(CC(CC)CCCC)s6)c6sc(C)cc6c(-c6cc(Cl)c(CC(CC)CCCC)s6)c5s4)s3)c2n1.CCCCCCc1ccc(C2(c3ccc(CCCCCC)cc3)c3cc4c(cc3-c3sc5cc(/C=C6\C(=O)c7cc(F)c(F)cc7C6=C(C#N)C#N)sc5c32)C(c2ccc(CCCCCC)cc2)(c2ccc(CCCCCC)cc2)c2c-4sc3cc(/C=C4\C(=O)c5cc(F)c(F)cc5C4=C(C#N)C#N)sc23)cc1,[C][C][C][C][C][C][C][C][C][Branch1][#Branch1][C][C][C][C][C][C][C][N][N][=C][C][Branch1][O][C][=C][C][=C][Branch1][C][C][S][Ring1][=Branch1][=C][Branch1][C][F][C][Branch1][C][F][=C][Branch2][#Branch1][Branch1][C][=C][C][=C][Branch2][=Branch1][#Branch2][C][=C][C][=C][Branch2][Ring1][#Branch1][C][=C][C][Branch1][C][Cl][=C][Branch1][O][C][C][Branch1][Ring1][C][C][C][C][C][C][S][Ring1][=C][C][S][C][Branch1][C][C][=C][C][=Ring1][=Branch1][C][Branch2][Ring1][#Branch1][C][=C][C][Branch1][C][Cl][=C][Branch1][O][C][C][Branch1][Ring1][C][C][C][C][C][C][S][Ring1][=C][=C][Ring2][Ring2][=Branch1][S][Ring2][Ring2][=Branch2][S][Ring2][Ring2][=C][C][Ring2][Branch1][N][=N][Ring2][Branch1][#C].[C][C][C][C][C][C][C][=C][C][=C][Branch2][N][Branch2][C][Branch1][P][C][=C][C][=C][Branch1][#Branch1][C][C][C][C][C][C][C][=C][Ring1][N][C][=C][C][=C][Branch2][Branch1][#Branch1][C][=C][Ring1][=Branch1][C][S][C][C][=C][Branch2][Ring1][#C][/C][=C][\C][=Branch1][C][=O][C][=C][C][Branch1][C][F][=C][Branch1][C][F][C][=C][Ring1][Branch2][C][Ring1][N][=C][Branch1][Ring1][C][#N][C][#N][S][C][=Ring2][Ring1][#Branch1][C][=Ring2][Ring1][#Branch2][Ring2][Ring2][=N][C][Branch1][P][C][=C][C][=C][Branch1][#Branch1][C][C][C][C][C][C][C][=C][Ring1][N][Branch1][P][C][=C][C][=C][Branch1][#Branch1][C][C][C][C][C][C][C][=C][Ring1][N][C][=C][Ring2][Branch1][=Branch2][S][C][C][=C][Branch2][Ring1][#C][/C][=C][\C][=Branch1][C][=O][C][=C][C][Branch1][C][F][=C][Branch1][C][F][C][=C][Ring1][Branch2][C][Ring1][N][=C][Branch1][Ring1][C][#N][C][#N][S][C][Ring2][Ring1][#Branch2][=Ring2][Ring1][#Branch1][C][=C][Ring2][Branch2][=Branch1],{CCCCCCCCC(CCCCCC)Cn1nc2c(-c3ccc([$])s3)c(F)c(F)c(-c3ccc(-c4cc5c(-c6cc(Cl)c(CC(CC)CCCC)s6)c6sc([$])cc6c(-c6cc(Cl)c(CC(CC)CCCC)s6)c5s4)s3)c2n1}.CCCCCCc1ccc(C2(c3ccc(CCCCCC)cc3)c3cc4c(cc3-c3sc5cc(/C=C6\C(=O)c7cc(F)c(F)cc7C6=C(C#N)C#N)sc5c32)C(c2ccc(CCCCCC)cc2)(c2ccc(CCCCCC)cc2)c2c-4sc3cc(/C=C4\C(=O)c5cc(F)c(F)cc5C4=C(C#N)C#N)sc23)cc1
PBZ-ClSi,IT-4F,-5.56,-3.5,-5.66875,-4.060416666666667,1.0,Toluene,PN,25.0,MoOx,ZnO,12.8,12.77,0.93,19.2,71.5,CCCCCCCCC(CCCCCC)Cn1nc2c(-c3ccc(C)s3)c(F)c(F)c(-c3ccc(-c4cc5c(-c6cc(Cl)c([Si](CCC)(CCC)CCC)s6)c6sc(C)cc6c(-c6cc(Cl)c([Si](CCC)(CCC)CCC)s6)c5s4)s3)c2n1.CCCCCCc1ccc(C2(c3ccc(CCCCCC)cc3)c3cc4c(cc3-c3sc5cc(/C=C6\C(=O)c7cc(F)c(F)cc7C6=C(C#N)C#N)sc5c32)C(c2ccc(CCCCCC)cc2)(c2ccc(CCCCCC)cc2)c2c-4sc3cc(/C=C4\C(=O)c5cc(F)c(F)cc5C4=C(C#N)C#N)sc23)cc1,[C][C][C][C][C][C][C][C][C][Branch1][#Branch1][C][C][C][C][C][C][C][N][N][=C][C][Branch1][O][C][=C][C][=C][Branch1][C][C][S][Ring1][=Branch1][=C][Branch1][C][F][C][Branch1][C][F][=C][Branch2][#Branch1][=N][C][=C][C][=C][Branch2][#Branch1][C][C][=C][C][=C][Branch2][Ring1][O][C][=C][C][Branch1][C][Cl][=C][Branch1][#C][Si][Branch1][Ring2][C][C][C][Branch1][Ring2][C][C][C][C][C][C][S][Ring1][S][C][S][C][Branch1][C][C][=C][C][=Ring1][=Branch1][C][Branch2][Ring1][O][C][=C][C][Branch1][C][Cl][=C][Branch1][#C][Si][Branch1][Ring2][C][C][C][Branch1][Ring2][C][C][C][C][C][C][S][Ring1][S][=C][Ring2][Ring2][#Branch2][S][Ring2][Ring2][=N][S][Ring2][Branch1][C][C][Ring2][Branch1][S][=N][Ring2][=Branch1][Ring1].[C][C][C][C][C][C][C][=C][C][=C][Branch2][N][Branch2][C][Branch1][P][C][=C][C][=C][Branch1][#Branch1][C][C][C][C][C][C][C][=C][Ring1][N][C][=C][C][=C][Branch2][Branch1][#Branch1][C][=C][Ring1][=Branch1][C][S][C][C][=C][Branch2][Ring1][#C][/C][=C][\C][=Branch1][C][=O][C][=C][C][Branch1][C][F][=C][Branch1][C][F][C][=C][Ring1][Branch2][C][Ring1][N][=C][Branch1][Ring1][C][#N][C][#N][S][C][=Ring2][Ring1][#Branch1][C][=Ring2][Ring1][#Branch2][Ring2][Ring2][=N][C][Branch1][P][C][=C][C][=C][Branch1][#Branch1][C][C][C][C][C][C][C][=C][Ring1][N][Branch1][P][C][=C][C][=C][Branch1][#Branch1][C][C][C][C][C][C][C][=C][Ring1][N][C][=C][Ring2][Branch1][=Branch2][S][C][C][=C][Branch2][Ring1][#C][/C][=C][\C][=Branch1][C][=O][C][=C][C][Branch1][C][F][=C][Branch1][C][F][C][=C][Ring1][Branch2][C][Ring1][N][=C][Branch1][Ring1][C][#N][C][#N][S][C][Ring2][Ring1][#Branch2][=Ring2][Ring1][#Branch1][C][=C][Ring2][Branch2][=Branch1],{CCCCCCCCC(CCCCCC)Cn1nc2c(-c3ccc([$])s3)c(F)c(F)c(-c3ccc(-c4cc5c(-c6cc(Cl)c([Si](CCC)(CCC)CCC)s6)c6sc([$])cc6c(-c6cc(Cl)c([Si](CCC)(CCC)CCC)s6)c5s4)s3)c2n1}.CCCCCCc1ccc(C2(c3ccc(CCCCCC)cc3)c3cc4c(cc3-c3sc5cc(/C=C6\C(=O)c7cc(F)c(F)cc7C6=C(C#N)C#N)sc5c32)C(c2ccc(CCCCCC)cc2)(c2ccc(CCCCCC)cc2)c2c-4sc3cc(/C=C4\C(=O)c5cc(F)c(F)cc5C4=C(C#N)C#N)sc23)cc1
PT1,ITIC,-5.46,-3.59,-5.574146341463415,-3.915,0.667,CB,_,25.0,MoOx,ZnO,2.13,2.14,0.95,5.77,39.0,CCCCCCCCc1sc(CCCCCCCC)c2c1C(=O)c1c(C)sc(-c3cc4c(-c5ccc(CC(CC)CCCC)s5)c5sc(C)cc5c(-c5ccc(CC(CC)CCCC)s5)c4s3)c1C2=O.CCCCCCc1ccc(C2(c3ccc(CCCCCC)cc3)c3cc4c(cc3-c3sc5cc(/C=C6\C(=O)c7ccccc7C6=C(C#N)C#N)sc5c32)C(c2ccc(CCCCCC)cc2)(c2ccc(CCCCCC)cc2)c2c-4sc3cc(/C=C4\C(=O)c5ccccc5C4=C(C#N)C#N)sc23)cc1,[C][C][C][C][C][C][C][C][C][S][C][Branch1][=Branch2][C][C][C][C][C][C][C][C][=C][C][=Ring1][=N][C][=Branch1][C][=O][C][=C][Branch1][C][C][S][C][Branch2][=Branch1][Ring2][C][=C][C][=C][Branch2][Ring1][Ring2][C][=C][C][=C][Branch1][O][C][C][Branch1][Ring1][C][C][C][C][C][C][S][Ring1][=N][C][S][C][Branch1][C][C][=C][C][=Ring1][=Branch1][C][Branch2][Ring1][Ring2][C][=C][C][=C][Branch1][O][C][C][Branch1][Ring1][C][C][C][C][C][C][S][Ring1][=N][=C][Ring2][Ring2][Ring2][S][Ring2][Ring2][#Branch1][=C][Ring2][Ring2][=N][C][Ring2][Branch1][C][=O].[C][C][C][C][C][C][C][=C][C][=C][Branch2][O][N][C][Branch1][P][C][=C][C][=C][Branch1][#Branch1][C][C][C][C][C][C][C][=C][Ring1][N][C][=C][C][=C][Branch2][Ring2][P][C][=C][Ring1][=Branch1][C][S][C][C][=C][Branch2][Ring1][=Branch2][/C][=C][\C][=Branch1][C][=O][C][=C][C][=C][C][=C][Ring1][=Branch1][C][Ring1][#Branch2][=C][Branch1][Ring1][C][#N][C][#N][S][C][=Ring2][Ring1][Branch1][C][=Ring2][Ring1][Branch2][Ring2][Ring2][O][C][Branch1][P][C][=C][C][=C][Branch1][#Branch1][C][C][C][C][C][C][C][=C][Ring1][N][Branch1][P][C][=C][C][=C][Branch1][#Branch1][C][C][C][C][C][C][C][=C][Ring1][N][C][=C][Ring2][Branch1][#Branch1][S][C][C][=C][Branch2][Ring1][=Branch2][/C][=C][\C][=Branch1][C][=O][C][=C][C][=C][C][=C][Ring1][=Branch1][C][Ring1][#Branch2][=C][Branch1][Ring1][C][#N][C][#N][S][C][Ring2][Ring1][Branch2][=Ring2][Ring1][Branch1][C][=C][Ring2][Branch2][C],{CCCCCCCCc1sc(CCCCCCCC)c2c1C(=O)c1c([$])sc(-c3cc4c(-c5ccc(CC(CC)CCCC)s5)c5sc([$])cc5c(-c5ccc(CC(CC)CCCC)s5)c4s3)c1C2=O}.CCCCCCc1ccc(C2(c3ccc(CCCCCC)cc3)c3cc4c(cc3-c3sc5cc(/C=C6\C(=O)c7ccccc7C6=C(C#N)C#N)sc5c32)C(c2ccc(CCCCCC)cc2)(c2ccc(CCCCCC)cc2)c2c-4sc3cc(/C=C4\C(=O)c5ccccc5C4=C(C#N)C#N)sc23)cc1
PT2,ITIC,-5.35,-3.58,-5.574146341463415,-3.915,0.667,CB,_,25.0,MoOx,ZnO,9.0,8.78,0.84,16.33,64.0,CCCCCCCCc1sc(CCCCCCCC)c2c1C(=O)c1c(-c3ccc(C)s3)sc(-c3ccc(-c4cc5c(-c6ccc(CC(CC)CCCC)s6)c6sc(C)cc6c(-c6ccc(CC(CC)CCCC)s6)c5s4)s3)c1C2=O.CCCCCCc1ccc(C2(c3ccc(CCCCCC)cc3)c3cc4c(cc3-c3sc5cc(/C=C6\C(=O)c7ccccc7C6=C(C#N)C#N)sc5c32)C(c2ccc(CCCCCC)cc2)(c2ccc(CCCCCC)cc2)c2c-4sc3cc(/C=C4\C(=O)c5ccccc5C4=C(C#N)C#N)sc23)cc1,[C][C][C][C][C][C][C][C][C][S][C][Branch1][=Branch2][C][C][C][C][C][C][C][C][=C][C][=Ring1][=N][C][=Branch1][C][=O][C][=C][Branch1][O][C][=C][C][=C][Branch1][C][C][S][Ring1][=Branch1][S][C][Branch2][=Branch1][#C][C][=C][C][=C][Branch2][=Branch1][Ring2][C][=C][C][=C][Branch2][Ring1][Ring2][C][=C][C][=C][Branch1][O][C][C][Branch1][Ring1][C][C][C][C][C][C][S][Ring1][=N][C][S][C][Branch1][C][C][=C][C][=Ring1][=Branch1][C][Branch2][Ring1][Ring2][C][=C][C][=C][Branch1][O][C][C][Branch1][Ring1][C][C][C][C][C][C][S][Ring1][=N][=C][Ring2][Ring2][Ring2][S][Ring2][Ring2][#Branch1][S][Ring2][Ring2][N][=C][Ring2][Branch1][#Branch1][C][Ring2][Branch1][N][=O].[C][C][C][C][C][C][C][=C][C][=C][Branch2][O][N][C][Branch1][P][C][=C][C][=C][Branch1][#Branch1][C][C][C][C][C][C][C][=C][Ring1][N][C][=C][C][=C][Branch2][Ring2][P][C][=C][Ring1][=Branch1][C][S][C][C][=C][Branch2][Ring1][=Branch2][/C][=C][\C][=Branch1][C][=O][C][=C][C][=C][C][=C][Ring1][=Branch1][C][Ring1][#Branch2][=C][Branch1][Ring1][C][#N][C][#N][S][C][=Ring2][Ring1][Branch1][C][=Ring2][Ring1][Branch2][Ring2][Ring2][O][C][Branch1][P][C][=C][C][=C][Branch1][#Branch1][C][C][C][C][C][C][C][=C][Ring1][N][Branch1][P][C][=C][C][=C][Branch1][#Branch1][C][C][C][C][C][C][C][=C][Ring1][N][C][=C][Ring2][Branch1][#Branch1][S][C][C][=C][Branch2][Ring1][=Branch2][/C][=C][\C][=Branch1][C][=O][C][=C][C][=C][C][=C][Ring1][=Branch1][C][Ring1][#Branch2][=C][Branch1][Ring1][C][#N][C][#N][S][C][Ring2][Ring1][Branch2][=Ring2][Ring1][Branch1][C][=C][Ring2][Branch2][C],{CCCCCCCCc1sc(CCCCCCCC)c2c1C(=O)c1c(-c3ccc([$])s3)sc(-c3ccc(-c4cc5c(-c6ccc(CC(CC)CCCC)s6)c6sc([$])cc6c(-c6ccc(CC(CC)CCCC)s6)c5s4)s3)c1C2=O}.CCCCCCc1ccc(C2(c3ccc(CCCCCC)cc3)c3cc4c(cc3-c3sc5cc(/C=C6\C(=O)c7ccccc7C6=C(C#N)C#N)sc5c32)C(c2ccc(CCCCCC)cc2)(c2ccc(CCCCCC)cc2)c2c-4sc3cc(/C=C4\C(=O)c5ccccc5C4=C(C#N)C#N)sc23)cc1