Donor,Acceptor,HOMO_D_eV,LUMO_D_eV,Eg_D_eV,Ehl_D_eV,HOMO_A_eV,LUMO_A_eV,Ehl_A_eV,Eg_A_eV,D_A_ratio_m_m,solvent,solvent_additive,annealing_temperature,hole_contact_layer,electron_contact_layer,PCE_percent,calc_PCE_percent,Voc_V,Jsc_mA_cm_pow_neg2,FF_percent,DA_SMILES,DA_SELFIES,DA_BigSMILES
PBDB-T,FDNCTF,-5.297777777777778,-3.4170000000000003,1.7681818181818183,-1.8807777777777777,-5.42,-3.73,-1.69,1.6,1:0.8,CB,_,25.0,PEDOT:PSS,PDINO,10.0,9.80232,0.94,15.8,66.0,Cc1ccc(-c2sc(-c3ccc(-c4cc5c(-c6ccc([Cr])s6)c6sc(C)cc6c(-c6ccc([Cr])s6)c5s4)s3)c3c2C(=O)c2c([Cr])sc([Cr])c2C3=O)s1.N#CC(C#N)=C1/C(=C/c2cc3c(s2)-c2cc4c(cc2C3([Ti])[Ti])-c2cc3c(cc2C4([Ti])[Ti])-c2sc(/C=C4\C(=O)c5cc6ccccc6cc5C4=C(C#N)C#N)cc2C3([Ti])[Ti])C(=O)c2cc3ccccc3cc21,[C][C][=C][C][=C][Branch2][#Branch1][O][C][S][C][Branch2][Branch1][O][C][=C][C][=C][Branch2][Ring2][S][C][=C][C][=C][Branch1][O][C][=C][C][=C][Branch1][C][Cr][S][Ring1][=Branch1][C][S][C][Branch1][C][C][=C][C][=Ring1][=Branch1][C][Branch1][O][C][=C][C][=C][Branch1][C][Cr][S][Ring1][=Branch1][=C][Ring2][Ring1][=Branch1][S][Ring2][Ring1][=Branch2][S][Ring2][Ring1][=C][=C][C][=Ring2][Ring2][Ring1][C][=Branch1][C][=O][C][=C][Branch1][C][Cr][S][C][Branch1][C][Cr][=C][Ring1][#Branch1][C][Ring1][N][=O][S][Ring2][Branch1][Ring1].[N][#C][C][Branch1][Ring1][C][#N][=C][/C][=Branch2][#Branch1][=C][=C][/C][=C][C][=C][Branch1][Ring2][S][Ring1][Branch1][C][=C][C][=C][Branch1][N][C][=C][Ring1][=Branch1][C][Ring1][#Branch2][Branch1][C][Ti][Ti][C][=C][C][=C][Branch1][N][C][=C][Ring1][=Branch1][C][Ring1][=C][Branch1][C][Ti][Ti][C][S][C][Branch2][Ring1][#C][/C][=C][\C][=Branch1][C][=O][C][=C][C][=C][C][=C][C][=C][Ring1][=Branch1][C][=C][Ring1][#Branch2][C][Ring1][=C][=C][Branch1][Ring1][C][#N][C][#N][=C][C][=Ring2][Ring1][=Branch2][C][Ring2][Ring1][P][Branch1][C][Ti][Ti][C][=Branch1][C][=O][C][=C][C][=C][C][=C][C][=C][Ring1][=Branch1][C][=C][Ring1][#Branch2][Ring2][=Branch1][C],{[$]c1ccc(-c2sc(-c3ccc(-c4cc5c(-c6ccc([Cr])s6)c6sc([$])cc6c(-c6ccc([Cr])s6)c5s4)s3)c3c2C(=O)c2c([Cr])sc([Cr])c2C3=O)s1}.N#CC(C#N)=C1/C(=C/c2cc3c(s2)-c2cc4c(cc2C3([Ti])[Ti])-c2cc3c(cc2C4([Ti])[Ti])-c2sc(/C=C4\C(=O)c5cc6ccccc6cc5C4=C(C#N)C#N)cc2C3([Ti])[Ti])C(=O)c2cc3ccccc3cc21
PBDB-T,FDICTF,-5.297777777777778,-3.4170000000000003,1.7681818181818183,-1.8807777777777777,-5.43,-3.71,-1.7199999999999998,1.63,1:0.8,CB,_,25.0,PEDOT:PSS,PDINO,11.2,10.990275,0.93,16.3,72.5,Cc1ccc(-c2sc(-c3ccc(-c4cc5c(-c6ccc([Cr])s6)c6sc(C)cc6c(-c6ccc([Cr])s6)c5s4)s3)c3c2C(=O)c2c([Cr])sc([Cr])c2C3=O)s1.N#CC(C#N)=C1/C(=C/c2cc3c(s2)-c2cc4c(cc2C3([Ti])[Ti])-c2cc3c(cc2C4([Ti])[Ti])-c2sc(/C=C4\C(=O)c5ccccc5C4=C(C#N)C#N)cc2C3([Ti])[Ti])C(=O)c2ccccc21,[C][C][=C][C][=C][Branch2][#Branch1][O][C][S][C][Branch2][Branch1][O][C][=C][C][=C][Branch2][Ring2][S][C][=C][C][=C][Branch1][O][C][=C][C][=C][Branch1][C][Cr][S][Ring1][=Branch1][C][S][C][Branch1][C][C][=C][C][=Ring1][=Branch1][C][Branch1][O][C][=C][C][=C][Branch1][C][Cr][S][Ring1][=Branch1][=C][Ring2][Ring1][=Branch1][S][Ring2][Ring1][=Branch2][S][Ring2][Ring1][=C][=C][C][=Ring2][Ring2][Ring1][C][=Branch1][C][=O][C][=C][Branch1][C][Cr][S][C][Branch1][C][Cr][=C][Ring1][#Branch1][C][Ring1][N][=O][S][Ring2][Branch1][Ring1].[N][#C][C][Branch1][Ring1][C][#N][=C][/C][=Branch2][#Branch1][Branch2][=C][/C][=C][C][=C][Branch1][Ring2][S][Ring1][Branch1][C][=C][C][=C][Branch1][N][C][=C][Ring1][=Branch1][C][Ring1][#Branch2][Branch1][C][Ti][Ti][C][=C][C][=C][Branch1][N][C][=C][Ring1][=Branch1][C][Ring1][=C][Branch1][C][Ti][Ti][C][S][C][Branch2][Ring1][=Branch2][/C][=C][\C][=Branch1][C][=O][C][=C][C][=C][C][=C][Ring1][=Branch1][C][Ring1][#Branch2][=C][Branch1][Ring1][C][#N][C][#N][=C][C][=Ring2][Ring1][Branch1][C][Ring2][Ring1][=N][Branch1][C][Ti][Ti][C][=Branch1][C][=O][C][=C][C][=C][C][=C][Ring1][=Branch1][Ring2][Branch1][#Branch2],{[$]c1ccc(-c2sc(-c3ccc(-c4cc5c(-c6ccc([Cr])s6)c6sc([$])cc6c(-c6ccc([Cr])s6)c5s4)s3)c3c2C(=O)c2c([Cr])sc([Cr])c2C3=O)s1}.N#CC(C#N)=C1/C(=C/c2cc3c(s2)-c2cc4c(cc2C3([Ti])[Ti])-c2cc3c(cc2C4([Ti])[Ti])-c2sc(/C=C4\C(=O)c5ccccc5C4=C(C#N)C#N)cc2C3([Ti])[Ti])C(=O)c2ccccc21
PTB7-Th,DTNR,-5.21,-3.542368421052632,1.5883333333333332,-1.667631578947368,-5.22,-3.5,-1.7199999999999998,1.72,1:1.5,CB,CN,25.0,MoOx,ZnO,9.51,9.507456,1.08,15.72,56.0,Cc1cc2c(-c3ccc([Cr])s3)c3sc(-c4sc(C)c5c(F)c(C(=O)O[Cr])sc45)cc3c(-c3ccc([Cr])s3)c2s1.CCN1C(=O)/C(=C/c2ccc(-c3cc4c(s3)-c3c(ccc5c6c(ccc35)C([Cr])([Cr])c3cc(-c5ccc(/C=C7\SC(=S)N(CC)C7=O)c7nsnc57)sc3-6)C4([Cr])[Cr])c3nsnc23)SC1=S,[C][C][=C][C][=C][Branch1][O][C][=C][C][=C][Branch1][C][Cr][S][Ring1][=Branch1][C][S][C][Branch2][Ring1][O][C][S][C][Branch1][C][C][=C][C][Branch1][C][F][=C][Branch1][#Branch1][C][=Branch1][C][=O][O][Cr][S][C][=Ring1][=C][Ring1][#Branch2][=C][C][=Ring2][Ring1][Ring1][C][Branch1][O][C][=C][C][=C][Branch1][C][Cr][S][Ring1][=Branch1][=C][Ring2][Ring2][Ring1][S][Ring2][Ring2][=Branch1].[C][C][N][C][=Branch1][C][=O][/C][=Branch2][Branch2][N][=C][/C][=C][C][=C][Branch2][#Branch1][#Branch2][C][=C][C][=C][Branch1][Ring2][S][Ring1][Branch1][C][=C][Branch2][=Branch1][Ring2][C][=C][C][=C][C][=Branch1][Branch2][=C][C][=C][Ring1][#Branch2][Ring1][=Branch1][C][Branch1][C][Cr][Branch1][C][Cr][C][C][=C][Branch2][Ring1][P][C][=C][C][=C][Branch1][P][/C][=C][\S][C][=Branch1][C][=S][N][Branch1][Ring1][C][C][C][Ring1][Branch2][=O][C][=N][S][N][=C][Ring2][Ring1][Ring1][Ring1][Branch1][S][C][=Ring2][Ring1][Branch2][Ring2][Ring1][S][C][Ring2][Ring2][=Branch2][Branch1][C][Cr][Cr][C][=N][S][N][=C][Ring2][Branch1][=Branch1][Ring1][Branch1][S][C][Ring2][Branch1][=N][=S],{[$]c1cc2c(-c3ccc([Cr])s3)c3sc(-c4sc([$])c5c(F)c(C(=O)O[Cr])sc45)cc3c(-c3ccc([Cr])s3)c2s1}.CCN1C(=O)/C(=C/c2ccc(-c3cc4c(s3)-c3c(ccc5c6c(ccc35)C([Cr])([Cr])c3cc(-c5ccc(/C=C7\SC(=S)N(CC)C7=O)c7nsnc57)sc3-6)C4([Cr])[Cr])c3nsnc23)SC1=S
PBDB-T,DTNIC6,-5.297777777777778,-3.4170000000000003,1.7681818181818183,-1.8807777777777777,-5.87,-3.92,-1.95,1.7,1:1,CB,_,25.0,MoOx,TiO2:TOPD,3.39,3.37735008,0.96,7.71,45.63,Cc1ccc(-c2sc(-c3ccc(-c4cc5c(-c6ccc([Cr])s6)c6sc(C)cc6c(-c6ccc([Cr])s6)c5s4)s3)c3c2C(=O)c2c([Cr])sc([Cr])c2C3=O)s1.N#CC(C#N)=C1/C(=C/c2cc3c(s2)-c2c(ccc4c5c(ccc24)C([Mo])([Mo])c2cc(/C=C4\C(=O)c6ccccc6C4=C(C#N)C#N)sc2-5)C3([Mo])[Mo])C(=O)c2ccccc21,[C][C][=C][C][=C][Branch2][#Branch1][O][C][S][C][Branch2][Branch1][O][C][=C][C][=C][Branch2][Ring2][S][C][=C][C][=C][Branch1][O][C][=C][C][=C][Branch1][C][Cr][S][Ring1][=Branch1][C][S][C][Branch1][C][C][=C][C][=Ring1][=Branch1][C][Branch1][O][C][=C][C][=C][Branch1][C][Cr][S][Ring1][=Branch1][=C][Ring2][Ring1][=Branch1][S][Ring2][Ring1][=Branch2][S][Ring2][Ring1][=C][=C][C][=Ring2][Ring2][Ring1][C][=Branch1][C][=O][C][=C][Branch1][C][Cr][S][C][Branch1][C][Cr][=C][Ring1][#Branch1][C][Ring1][N][=O][S][Ring2][Branch1][Ring1].[N][#C][C][Branch1][Ring1][C][#N][=C][/C][=Branch2][#Branch1][Ring1][=C][/C][=C][C][=C][Branch1][Ring2][S][Ring1][Branch1][C][=C][Branch2][Branch1][N][C][=C][C][=C][C][=Branch1][Branch2][=C][C][=C][Ring1][#Branch2][Ring1][=Branch1][C][Branch1][C][Mo][Branch1][C][Mo][C][C][=C][Branch2][Ring1][=Branch2][/C][=C][\C][=Branch1][C][=O][C][=C][C][=C][C][=C][Ring1][=Branch1][C][Ring1][#Branch2][=C][Branch1][Ring1][C][#N][C][#N][S][C][=Ring2][Ring1][Branch1][Ring2][Ring1][=N][C][Ring2][Ring2][=Branch1][Branch1][C][Mo][Mo][C][=Branch1][C][=O][C][=C][C][=C][C][=C][Ring1][=Branch1][Ring2][Branch1][Branch1],{[$]c1ccc(-c2sc(-c3ccc(-c4cc5c(-c6ccc([Cr])s6)c6sc([$])cc6c(-c6ccc([Cr])s6)c5s4)s3)c3c2C(=O)c2c([Cr])sc([Cr])c2C3=O)s1}.N#CC(C#N)=C1/C(=C/c2cc3c(s2)-c2c(ccc4c5c(ccc24)C([Mo])([Mo])c2cc(/C=C4\C(=O)c6ccccc6C4=C(C#N)C#N)sc2-5)C3([Mo])[Mo])C(=O)c2ccccc21
PBDB-T,DTNIC8,-5.297777777777778,-3.4170000000000003,1.7681818181818183,-1.8807777777777777,-5.91,-3.93,-1.98,1.73,1:1,CB,_,25.0,MoOx,TiO2:TOPD,9.03,9.03449088,0.96,12.92,72.84,Cc1ccc(-c2sc(-c3ccc(-c4cc5c(-c6ccc([Cr])s6)c6sc(C)cc6c(-c6ccc([Cr])s6)c5s4)s3)c3c2C(=O)c2c([Cr])sc([Cr])c2C3=O)s1.N#CC(C#N)=C1/C(=C/c2cc3c(s2)-c2c(ccc4c5c(ccc24)C([Cr])([Cr])c2cc(/C=C4\C(=O)c6ccccc6C4=C(C#N)C#N)sc2-5)C3([Cr])[Cr])C(=O)c2ccccc21,[C][C][=C][C][=C][Branch2][#Branch1][O][C][S][C][Branch2][Branch1][O][C][=C][C][=C][Branch2][Ring2][S][C][=C][C][=C][Branch1][O][C][=C][C][=C][Branch1][C][Cr][S][Ring1][=Branch1][C][S][C][Branch1][C][C][=C][C][=Ring1][=Branch1][C][Branch1][O][C][=C][C][=C][Branch1][C][Cr][S][Ring1][=Branch1][=C][Ring2][Ring1][=Branch1][S][Ring2][Ring1][=Branch2][S][Ring2][Ring1][=C][=C][C][=Ring2][Ring2][Ring1][C][=Branch1][C][=O][C][=C][Branch1][C][Cr][S][C][Branch1][C][Cr][=C][Ring1][#Branch1][C][Ring1][N][=O][S][Ring2][Branch1][Ring1].[N][#C][C][Branch1][Ring1][C][#N][=C][/C][=Branch2][#Branch1][Ring1][=C][/C][=C][C][=C][Branch1][Ring2][S][Ring1][Branch1][C][=C][Branch2][Branch1][N][C][=C][C][=C][C][=Branch1][Branch2][=C][C][=C][Ring1][#Branch2][Ring1][=Branch1][C][Branch1][C][Cr][Branch1][C][Cr][C][C][=C][Branch2][Ring1][=Branch2][/C][=C][\C][=Branch1][C][=O][C][=C][C][=C][C][=C][Ring1][=Branch1][C][Ring1][#Branch2][=C][Branch1][Ring1][C][#N][C][#N][S][C][=Ring2][Ring1][Branch1][Ring2][Ring1][=N][C][Ring2][Ring2][=Branch1][Branch1][C][Cr][Cr][C][=Branch1][C][=O][C][=C][C][=C][C][=C][Ring1][=Branch1][Ring2][Branch1][Branch1],{[$]c1ccc(-c2sc(-c3ccc(-c4cc5c(-c6ccc([Cr])s6)c6sc([$])cc6c(-c6ccc([Cr])s6)c5s4)s3)c3c2C(=O)c2c([Cr])sc([Cr])c2C3=O)s1}.N#CC(C#N)=C1/C(=C/c2cc3c(s2)-c2c(ccc4c5c(ccc24)C([Cr])([Cr])c2cc(/C=C4\C(=O)c6ccccc6C4=C(C#N)C#N)sc2-5)C3([Cr])[Cr])C(=O)c2ccccc21
PTB7-Th,DTCC-IC,-5.21,-3.542368421052632,1.5883333333333332,-1.667631578947368,-5.5,-3.87,-1.63,1.59,1:1,CF,CN,100.0,PEDOT:PSS,Ca,6.0,5.995697,0.95,11.23,56.2,Cc1cc2c(-c3ccc([Cr])s3)c3sc(-c4sc(C)c5c(F)c(C(=O)O[Cr])sc45)cc3c(-c3ccc([Cr])s3)c2s1.N#CC(C#N)=C1/C(=C/c2cc3c(s2)-c2cc4c(cc2C3(c2ccc(O[Ti])cc2)c2ccc(O[Ti])cc2)c2cc3c(cc2n4[Ti])-c2sc(/C=C4\C(=O)c5cc(F)c(F)cc5C4=C(C#N)C#N)cc2C3(c2ccc(O[Ti])cc2)c2ccc(O[Ti])cc2)C(=O)c2cc(F)c(F)cc21,[C][C][=C][C][=C][Branch1][O][C][=C][C][=C][Branch1][C][Cr][S][Ring1][=Branch1][C][S][C][Branch2][Ring1][O][C][S][C][Branch1][C][C][=C][C][Branch1][C][F][=C][Branch1][#Branch1][C][=Branch1][C][=O][O][Cr][S][C][=Ring1][=C][Ring1][#Branch2][=C][C][=Ring2][Ring1][Ring1][C][Branch1][O][C][=C][C][=C][Branch1][C][Cr][S][Ring1][=Branch1][=C][Ring2][Ring2][Ring1][S][Ring2][Ring2][=Branch1].[N][#C][C][Branch1][Ring1][C][#N][=C][/C][=Branch2][#Branch2][=Branch2][=C][/C][=C][C][=C][Branch1][Ring2][S][Ring1][Branch1][C][=C][C][=C][Branch2][Ring2][C][C][=C][Ring1][=Branch1][C][Ring1][#Branch2][Branch1][=N][C][=C][C][=C][Branch1][Ring1][O][Ti][C][=C][Ring1][Branch2][C][=C][C][=C][Branch1][Ring1][O][Ti][C][=C][Ring1][Branch2][C][=C][C][=C][Branch1][#Branch2][C][=C][Ring1][=Branch1][N][Ring2][Ring1][N][Ti][C][S][C][Branch2][Ring1][#C][/C][=C][\C][=Branch1][C][=O][C][=C][C][Branch1][C][F][=C][Branch1][C][F][C][=C][Ring1][Branch2][C][Ring1][N][=C][Branch1][Ring1][C][#N][C][#N][=C][C][=Ring2][Ring1][#Branch1][C][Ring2][Ring1][=C][Branch1][=N][C][=C][C][=C][Branch1][Ring1][O][Ti][C][=C][Ring1][Branch2][C][=C][C][=C][Branch1][Ring1][O][Ti][C][=C][Ring1][Branch2][C][=Branch1][C][=O][C][=C][C][Branch1][C][F][=C][Branch1][C][F][C][=C][Ring1][Branch2][Ring2][#Branch1][=Branch2],{[$]c1cc2c(-c3ccc([Cr])s3)c3sc(-c4sc([$])c5c(F)c(C(=O)O[Cr])sc45)cc3c(-c3ccc([Cr])s3)c2s1}.N#CC(C#N)=C1/C(=C/c2cc3c(s2)-c2cc4c(cc2C3(c2ccc(O[Ti])cc2)c2ccc(O[Ti])cc2)c2cc3c(cc2n4[Ti])-c2sc(/C=C4\C(=O)c5cc(F)c(F)cc5C4=C(C#N)C#N)cc2C3(c2ccc(O[Ti])cc2)c2ccc(O[Ti])cc2)C(=O)c2cc(F)c(F)cc21
P3HT,DNIT-TT2T,-5.057777777777777,-2.989444444444445,1.9,-2.068333333333332,-5.94,-3.75,-2.1900000000000004,2.19,1:1,o-DCB,_,130.0,PEDOT:PSS,Ca,1.25,1.25471808,0.88,3.28,43.47,CCCCCCc1cc(-c2sc(-c3sc(-c4sc(C)cc4CCCCCC)cc3CCCCCC)cc2CCCCCC)sc1C.O=C1c2cccc3c(-c4ccc(-c5sc6c(-c7ccc([Mo])s7)c(-c7ccc(-c8ccc9c%10c(cccc8%10)C(=O)N([Cr])C9=O)s7)sc6c5-c5ccc([Mo])s5)s4)ccc(c23)C(=O)N1[Cr],[C][C][C][C][C][C][C][C][=C][Branch2][Ring2][P][C][S][C][Branch2][Ring1][S][C][S][C][Branch1][P][C][S][C][Branch1][C][C][=C][C][=Ring1][=Branch1][C][C][C][C][C][C][=C][C][=Ring1][P][C][C][C][C][C][C][=C][C][=Ring2][Ring1][N][C][C][C][C][C][C][S][C][=Ring2][Ring2][#Branch1][C].[O][=C][C][=C][C][=C][C][=C][Branch2][#Branch1][#Branch2][C][=C][C][=C][Branch2][=Branch1][#C][C][S][C][C][Branch1][O][C][=C][C][=C][Branch1][C][Mo][S][Ring1][=Branch1][=C][Branch2][Ring2][Branch2][C][=C][C][=C][Branch2][Ring1][=N][C][=C][C][=C][C][=C][Branch1][=Branch2][C][=C][C][=C][Ring1][#Branch2][Ring1][=Branch1][C][=Branch1][C][=O][N][Branch1][C][Cr][C][Ring1][N][=O][S][Ring2][Ring1][Branch1][S][C][=Ring2][Ring1][S][C][=Ring2][Ring2][Ring1][C][=C][C][=C][Branch1][C][Mo][S][Ring1][=Branch1][S][Ring2][Ring2][=C][C][=C][C][=Branch1][Branch2][=C][Ring2][Branch1][Branch2][Ring2][Branch1][Ring2][C][=Branch1][C][=O][N][Ring2][Branch1][N][Cr],{CCCCCCc1cc(-c2sc(-c3sc(-c4sc([$])cc4CCCCCC)cc3CCCCCC)cc2CCCCCC)sc1[$]}.O=C1c2cccc3c(-c4ccc(-c5sc6c(-c7ccc([Mo])s7)c(-c7ccc(-c8ccc9c%10c(cccc8%10)C(=O)N([Cr])C9=O)s7)sc6c5-c5ccc([Mo])s5)s4)ccc(c23)C(=O)N1[Cr]
PTB7-Th,DICTF,-5.21,-3.542368421052632,1.5883333333333332,-1.667631578947368,-5.67,-3.79,-1.88,1.82,1:1.4,CF,_,100.0,PEDOT:PSS,PDIN,7.63,7.634275,0.85,16.33,55.0,Cc1cc2c(-c3ccc([Cr])s3)c3sc(-c4sc(C)c5c(F)c(C(=O)O[Cr])sc45)cc3c(-c3ccc([Cr])s3)c2s1.N#CC(C#N)=C1/C(=C/c2ccc(-c3ccc4c(c3)C([Ti])([Ti])c3cc(-c5ccc(/C=C6\C(=O)c7ccccc7C6=C(C#N)C#N)s5)ccc3-4)s2)C(=O)c2ccccc21,[C][C][=C][C][=C][Branch1][O][C][=C][C][=C][Branch1][C][Cr][S][Ring1][=Branch1][C][S][C][Branch2][Ring1][O][C][S][C][Branch1][C][C][=C][C][Branch1][C][F][=C][Branch1][#Branch1][C][=Branch1][C][=O][O][Cr][S][C][=Ring1][=C][Ring1][#Branch2][=C][C][=Ring2][Ring1][Ring1][C][Branch1][O][C][=C][C][=C][Branch1][C][Cr][S][Ring1][=Branch1][=C][Ring2][Ring2][Ring1][S][Ring2][Ring2][=Branch1].[N][#C][C][Branch1][Ring1][C][#N][=C][/C][=Branch2][=Branch1][S][=C][/C][=C][C][=C][Branch2][=Branch1][Ring2][C][=C][C][=C][C][=Branch1][Ring2][=C][Ring1][=Branch1][C][Branch1][C][Ti][Branch1][C][Ti][C][=C][C][Branch2][Ring2][Ring2][C][=C][C][=C][Branch2][Ring1][=Branch2][/C][=C][\C][=Branch1][C][=O][C][=C][C][=C][C][=C][Ring1][=Branch1][C][Ring1][#Branch2][=C][Branch1][Ring1][C][#N][C][#N][S][Ring2][Ring1][Branch1][=C][C][=C][Ring2][Ring1][O][Ring2][Ring1][P][S][Ring2][Ring2][=Branch2][C][=Branch1][C][=O][C][=C][C][=C][C][=C][Ring1][=Branch1][Ring2][Branch1][Ring2],{[$]c1cc2c(-c3ccc([Cr])s3)c3sc(-c4sc([$])c5c(F)c(C(=O)O[Cr])sc45)cc3c(-c3ccc([Cr])s3)c2s1}.N#CC(C#N)=C1/C(=C/c2ccc(-c3ccc4c(c3)C([Ti])([Ti])c3cc(-c5ccc(/C=C6\C(=O)c7ccccc7C6=C(C#N)C#N)s5)ccc3-4)s2)C(=O)c2ccccc21
P1_BDT-TBT,PY1,-5.1,-3.48,1.6,-1.6199999999999997,-5.27,-4.0,-1.2699999999999996,1.4,1:2,CF,DIO,25.0,PEDOT:PSS,PFN-Br,4.89,4.894344,0.83,10.53,56.0,CCCCCCCCCCCCSOc1c2cc(-c3ccc(-c4ccc(-c5ccc(C)s5)c5nsnc45)s3)sc2c(OSCCCCCCCCCCCC)c2cc(C)sc12.CCCCCCCCCCCCCCCCCn1c2cc(-c3sc(-c4sc(/C=C5\C(=O)N(CCCC)C(=O)C(C#N)C5C)cc4CCCCCC)cc3CCCCCC)sc2c2sc(-c3sc(-c4sc(/C=C5\C(=O)N(CCCC)C(=O)C(C#N)C5C)cc4CCCCCC)cc3CCCCCC)cc21,[C][C][C][C][C][C][C][C][C][C][C][C][S][O][C][=C][C][=C][Branch2][Ring2][Branch1][C][=C][C][=C][Branch2][Ring1][#Branch2][C][=C][C][=C][Branch1][O][C][=C][C][=C][Branch1][C][C][S][Ring1][=Branch1][C][=N][S][N][=C][Ring1][#C][Ring1][Branch1][S][Ring2][Ring1][Ring2][S][C][Ring2][Ring1][=Branch2][=C][Branch1][#C][O][S][C][C][C][C][C][C][C][C][C][C][C][C][C][C][=C][Branch1][C][C][S][C][Ring2][Ring2][#C][=Ring1][=Branch1].[C][C][C][C][C][C][C][C][C][C][C][C][C][C][C][C][C][N][C][C][=C][Branch2][Branch1][=N][C][S][C][Branch2][Ring2][N][C][S][C][Branch2][Ring1][O][/C][=C][\C][=Branch1][C][=O][N][Branch1][Branch1][C][C][C][C][C][=Branch1][C][=O][C][Branch1][Ring1][C][#N][C][Ring1][=C][C][=C][C][=Ring2][Ring1][Branch1][C][C][C][C][C][C][=C][C][=Ring2][Ring1][S][C][C][C][C][C][C][S][C][=Ring2][Ring2][O][C][S][C][Branch2][Branch1][=N][C][S][C][Branch2][Ring2][N][C][S][C][Branch2][Ring1][O][/C][=C][\C][=Branch1][C][=O][N][Branch1][Branch1][C][C][C][C][C][=Branch1][C][=O][C][Branch1][Ring1][C][#N][C][Ring1][=C][C][=C][C][=Ring2][Ring1][Branch1][C][C][C][C][C][C][=C][C][=Ring2][Ring1][S][C][C][C][C][C][C][=C][C][=Ring2][Ring2][O][Ring2][#Branch1][#Branch1],{CCCCCCCCCCCCSOc1c2cc(-c3ccc(-c4ccc(-c5ccc([$])s5)c5nsnc45)s3)sc2c(OSCCCCCCCCCCCC)c2cc([$])sc12}.CCCCCCCCCCCCCCCCCn1c2cc(-c3sc(-c4sc(/C=C5\C(=O)N(CCCC)C(=O)C(C#N)C5C)cc4CCCCCC)cc3CCCCCC)sc2c2sc(-c3sc(-c4sc(/C=C5\C(=O)N(CCCC)C(=O)C(C#N)C5C)cc4CCCCCC)cc3CCCCCC)cc21
P1_BDT-TBT,DCI-2,-5.1,-3.48,1.6,-1.6199999999999997,-5.24,-4.05,-1.1900000000000004,1.23,1:2,CF,DIO,25.0,PEDOT:PSS,PFN-Br,6.94,6.94008,0.8,13.77,63.0,CCCCCCCCCCCCSOc1c2cc(-c3ccc(-c4ccc(-c5ccc(C)s5)c5nsnc45)s3)sc2c(OSCCCCCCCCCCCC)c2cc(C)sc12.N#CC(C#N)=C1/C(=C/c2cc([Mo])c(-c3cc([Mo])c(-c4cc5c(s4)c4sc(-c6sc(-c7sc(/C=C8\C(=O)c9ccccc9C8=C(C#N)C#N)cc7[Mo])cc6[Mo])cc4n5[Ag])s3)s2)C(=O)c2ccccc21,[C][C][C][C][C][C][C][C][C][C][C][C][S][O][C][=C][C][=C][Branch2][Ring2][Branch1][C][=C][C][=C][Branch2][Ring1][#Branch2][C][=C][C][=C][Branch1][O][C][=C][C][=C][Branch1][C][C][S][Ring1][=Branch1][C][=N][S][N][=C][Ring1][#C][Ring1][Branch1][S][Ring2][Ring1][Ring2][S][C][Ring2][Ring1][=Branch2][=C][Branch1][#C][O][S][C][C][C][C][C][C][C][C][C][C][C][C][C][C][=C][Branch1][C][C][S][C][Ring2][Ring2][#C][=Ring1][=Branch1].[N][#C][C][Branch1][Ring1][C][#N][=C][/C][=Branch2][Branch2][#Branch1][=C][/C][=C][C][Branch1][C][Mo][=C][Branch2][#Branch1][Branch2][C][=C][C][Branch1][C][Mo][=C][Branch2][=Branch1][#Branch2][C][=C][C][=C][Branch1][Ring2][S][Ring1][Branch1][C][S][C][Branch2][Ring2][P][C][S][C][Branch2][Ring2][Branch1][C][S][C][Branch2][Ring1][=Branch2][/C][=C][\C][=Branch1][C][=O][C][=C][C][=C][C][=C][Ring1][=Branch1][C][Ring1][#Branch2][=C][Branch1][Ring1][C][#N][C][#N][=C][C][=Ring2][Ring1][Branch1][Mo][=C][C][=Ring2][Ring1][O][Mo][=C][C][=Ring2][Ring1][P][N][Ring2][Ring2][Branch1][Ag][S][Ring2][Ring2][=C][S][Ring2][Branch1][Ring2][C][=Branch1][C][=O][C][=C][C][=C][C][=C][Ring1][=Branch1][Ring2][Branch1][#C],{CCCCCCCCCCCCSOc1c2cc(-c3ccc(-c4ccc(-c5ccc([$])s5)c5nsnc45)s3)sc2c(OSCCCCCCCCCCCC)c2cc([$])sc12}.N#CC(C#N)=C1/C(=C/c2cc([Mo])c(-c3cc([Mo])c(-c4cc5c(s4)c4sc(-c6sc(-c7sc(/C=C8\C(=O)c9ccccc9C8=C(C#N)C#N)cc7[Mo])cc6[Mo])cc4n5[Ag])s3)s2)C(=O)c2ccccc21
PTB7-Th,IM-IDT,-5.21,-3.542368421052632,1.5883333333333332,-1.667631578947368,-5.44,-4.0,-1.4400000000000004,1.48,1:1,o-DCB,DPE,100.0,PEDOT:PSS,Ca,1.6,1.41423488,0.58,4.96,49.16,Cc1cc2c(-c3ccc([Cr])s3)c3sc(-c4sc(C)c5c(F)c(C(=O)O[Cr])sc45)cc3c(-c3ccc([Cr])s3)c2s1.N#CC(C#N)=C1C(=O)N([Cr])c2cc(-c3cc4c(s3)-c3cc5c(cc3C4(c3ccc([Mo])cc3)c3ccc([Mo])cc3)-c3sc(-c4ccc6c(c4)N([Cr])C(=O)C6=C(C#N)C#N)cc3C5(c3ccc([Mo])cc3)c3ccc([Mo])cc3)ccc21,[C][C][=C][C][=C][Branch1][O][C][=C][C][=C][Branch1][C][Cr][S][Ring1][=Branch1][C][S][C][Branch2][Ring1][O][C][S][C][Branch1][C][C][=C][C][Branch1][C][F][=C][Branch1][#Branch1][C][=Branch1][C][=O][O][Cr][S][C][=Ring1][=C][Ring1][#Branch2][=C][C][=Ring2][Ring1][Ring1][C][Branch1][O][C][=C][C][=C][Branch1][C][Cr][S][Ring1][=Branch1][=C][Ring2][Ring2][Ring1][S][Ring2][Ring2][=Branch1].[N][#C][C][Branch1][Ring1][C][#N][=C][C][=Branch1][C][=O][N][Branch1][C][Cr][C][=C][C][Branch2][=Branch2][Ring1][C][=C][C][=C][Branch1][Ring2][S][Ring1][Branch1][C][=C][C][=C][Branch2][Ring1][S][C][=C][Ring1][=Branch1][C][Ring1][#Branch2][Branch1][N][C][=C][C][=C][Branch1][C][Mo][C][=C][Ring1][#Branch1][C][=C][C][=C][Branch1][C][Mo][C][=C][Ring1][#Branch1][C][S][C][Branch2][Ring1][=N][C][=C][C][=C][C][=Branch1][Ring2][=C][Ring1][=Branch1][N][Branch1][C][Cr][C][=Branch1][C][=O][C][Ring1][Branch2][=C][Branch1][Ring1][C][#N][C][#N][=C][C][=Ring2][Ring1][Branch1][C][Ring2][Ring2][=Branch2][Branch1][N][C][=C][C][=C][Branch1][C][Mo][C][=C][Ring1][#Branch1][C][=C][C][=C][Branch1][C][Mo][C][=C][Ring1][#Branch1][=C][C][=C][Ring2][=Branch1][Ring2][Ring2][=Branch1][=Branch2],{[$]c1cc2c(-c3ccc([Cr])s3)c3sc(-c4sc([$])c5c(F)c(C(=O)O[Cr])sc45)cc3c(-c3ccc([Cr])s3)c2s1}.N#CC(C#N)=C1C(=O)N([Cr])c2cc(-c3cc4c(s3)-c3cc5c(cc3C4(c3ccc([Mo])cc3)c3ccc([Mo])cc3)-c3sc(-c4ccc6c(c4)N([Cr])C(=O)C6=C(C#N)C#N)cc3C5(c3ccc([Mo])cc3)c3ccc([Mo])cc3)ccc21