Donor,Acceptor,HOMO_D_eV,LUMO_D_eV,Eg_D_eV,Ehl_D_eV,HOMO_A_eV,LUMO_A_eV,Ehl_A_eV,Eg_A_eV,D_A_ratio_m_m,solvent,solvent_additive,annealing_temperature,hole_contact_layer,electron_contact_layer,PCE_percent,calc_PCE_percent,Voc_V,Jsc_mA_cm_pow_neg2,FF_percent,DA_SMILES,DA_SELFIES,DA_BigSMILES
PBDB-T,O-NTNC,-5.297777777777778,-3.4170000000000003,1.7681818181818183,-1.8807777777777777,-5.54,-3.78,-1.7600000000000002,1.64,1:0.8,CB,DIO,25.0,PEDOT:PSS,PDINO,11.04,11.04901944,0.942,15.98,73.4,Cc1ccc(-c2sc(-c3ccc(-c4cc5c(-c6ccc([Cr])s6)c6sc(C)cc6c(-c6ccc([Cr])s6)c5s4)s3)c3c2C(=O)c2c([Cr])sc([Cr])c2C3=O)s1.N#CC(C#N)=C1/C(=C/c2cc3c(s2)-c2c(ccc4c5c(ccc24)C(c2ccc(O[Co])cc2)(c2ccc(O[Co])cc2)c2cc(/C=C4\C(=O)c6cc7ccccc7cc6C4=C(C#N)C#N)sc2-5)C3(c2ccc(O[Co])cc2)c2ccc(O[Co])cc2)C(=O)c2cc3ccccc3cc21,[C][C][=C][C][=C][Branch2][#Branch1][O][C][S][C][Branch2][Branch1][O][C][=C][C][=C][Branch2][Ring2][S][C][=C][C][=C][Branch1][O][C][=C][C][=C][Branch1][C][Cr][S][Ring1][=Branch1][C][S][C][Branch1][C][C][=C][C][=Ring1][=Branch1][C][Branch1][O][C][=C][C][=C][Branch1][C][Cr][S][Ring1][=Branch1][=C][Ring2][Ring1][=Branch1][S][Ring2][Ring1][=Branch2][S][Ring2][Ring1][=C][=C][C][=Ring2][Ring2][Ring1][C][=Branch1][C][=O][C][=C][Branch1][C][Cr][S][C][Branch1][C][Cr][=C][Ring1][#Branch1][C][Ring1][N][=O][S][Ring2][Branch1][Ring1].[N][#C][C][Branch1][Ring1][C][#N][=C][/C][=Branch2][#Branch2][Branch1][=C][/C][=C][C][=C][Branch1][Ring2][S][Ring1][Branch1][C][=C][Branch2][#Branch1][Branch2][C][=C][C][=C][C][=Branch1][Branch2][=C][C][=C][Ring1][#Branch2][Ring1][=Branch1][C][Branch1][=N][C][=C][C][=C][Branch1][Ring1][O][Co][C][=C][Ring1][Branch2][Branch1][=N][C][=C][C][=C][Branch1][Ring1][O][Co][C][=C][Ring1][Branch2][C][C][=C][Branch2][Ring1][#C][/C][=C][\C][=Branch1][C][=O][C][=C][C][=C][C][=C][C][=C][Ring1][=Branch1][C][=C][Ring1][#Branch2][C][Ring1][=C][=C][Branch1][Ring1][C][#N][C][#N][S][C][=Ring2][Ring1][=Branch2][Ring2][Ring2][#C][C][Ring2][Branch1][Branch2][Branch1][=N][C][=C][C][=C][Branch1][Ring1][O][Co][C][=C][Ring1][Branch2][C][=C][C][=C][Branch1][Ring1][O][Co][C][=C][Ring1][Branch2][C][=Branch1][C][=O][C][=C][C][=C][C][=C][C][=C][Ring1][=Branch1][C][=C][Ring1][#Branch2][Ring2][#Branch1][=Branch2],{[$]c1ccc(-c2sc(-c3ccc(-c4cc5c(-c6ccc([Cr])s6)c6sc([$])cc6c(-c6ccc([Cr])s6)c5s4)s3)c3c2C(=O)c2c([Cr])sc([Cr])c2C3=O)s1}.N#CC(C#N)=C1/C(=C/c2cc3c(s2)-c2c(ccc4c5c(ccc24)C(c2ccc(O[Co])cc2)(c2ccc(O[Co])cc2)c2cc(/C=C4\C(=O)c6cc7ccccc7cc6C4=C(C#N)C#N)sc2-5)C3(c2ccc(O[Co])cc2)c2ccc(O[Co])cc2)C(=O)c2cc3ccccc3cc21
PBDB-T,BTTFIC,-5.297777777777778,-3.4170000000000003,1.7681818181818183,-1.8807777777777777,-5.56,-3.95,-1.6099999999999994,1.58,1.5:1,o-DCB,_,130.0,MoOx,ZnO,9.0,9.0066867,0.935,17.74,54.3,Cc1ccc(-c2sc(-c3ccc(-c4cc5c(-c6ccc([Cr])s6)c6sc(C)cc6c(-c6ccc([Cr])s6)c5s4)s3)c3c2C(=O)c2c([Cr])sc([Cr])c2C3=O)s1.N#CC(C#N)=C1/C(=C/c2cc3sc4c(c3s2)C([Ti])([Ti])c2cc3c(cc2-4)C([Ti])([Ti])c2cc4c(cc2-3)C([Ti])([Ti])c2c-4sc3cc(/C=C4\C(=O)c5ccccc5C4=C(C#N)C#N)sc23)C(=O)c2ccccc21,[C][C][=C][C][=C][Branch2][#Branch1][O][C][S][C][Branch2][Branch1][O][C][=C][C][=C][Branch2][Ring2][S][C][=C][C][=C][Branch1][O][C][=C][C][=C][Branch1][C][Cr][S][Ring1][=Branch1][C][S][C][Branch1][C][C][=C][C][=Ring1][=Branch1][C][Branch1][O][C][=C][C][=C][Branch1][C][Cr][S][Ring1][=Branch1][=C][Ring2][Ring1][=Branch1][S][Ring2][Ring1][=Branch2][S][Ring2][Ring1][=C][=C][C][=Ring2][Ring2][Ring1][C][=Branch1][C][=O][C][=C][Branch1][C][Cr][S][C][Branch1][C][Cr][=C][Ring1][#Branch1][C][Ring1][N][=O][S][Ring2][Branch1][Ring1].[N][#C][C][Branch1][Ring1][C][#N][=C][/C][=Branch2][Branch2][Branch2][=C][/C][=C][C][S][C][=C][Branch1][#Branch1][C][=Ring1][Branch1][S][Ring1][Branch2][C][Branch1][C][Ti][Branch1][C][Ti][C][=C][C][=C][Branch1][#Branch1][C][=C][Ring1][=Branch1][Ring1][=N][C][Branch1][C][Ti][Branch1][C][Ti][C][=C][C][=C][Branch1][#Branch1][C][=C][Ring1][=Branch1][Ring1][=N][C][Branch1][C][Ti][Branch1][C][Ti][C][=C][Ring1][=Branch2][S][C][C][=C][Branch2][Ring1][=Branch2][/C][=C][\C][=Branch1][C][=O][C][=C][C][=C][C][=C][Ring1][=Branch1][C][Ring1][#Branch2][=C][Branch1][Ring1][C][#N][C][#N][S][C][Ring2][Ring1][Branch2][=Ring2][Ring1][Branch1][C][=Branch1][C][=O][C][=C][C][=C][C][=C][Ring1][=Branch1][Ring2][Branch1][S],{[$]c1ccc(-c2sc(-c3ccc(-c4cc5c(-c6ccc([Cr])s6)c6sc([$])cc6c(-c6ccc([Cr])s6)c5s4)s3)c3c2C(=O)c2c([Cr])sc([Cr])c2C3=O)s1}.N#CC(C#N)=C1/C(=C/c2cc3sc4c(c3s2)C([Ti])([Ti])c2cc3c(cc2-4)C([Ti])([Ti])c2cc4c(cc2-3)C([Ti])([Ti])c2c-4sc3cc(/C=C4\C(=O)c5ccccc5C4=C(C#N)C#N)sc23)C(=O)c2ccccc21
PTB7-Th,BTTFIC,-5.21,-3.542368421052632,1.5883333333333332,-1.667631578947368,-5.56,-3.95,-1.6099999999999994,1.58,1:2,o-DCB,_,130.0,MoOx,ZnO,8.47,8.4648135,0.871,17.67,55.0,Cc1cc2c(-c3ccc([Cr])s3)c3sc(-c4sc(C)c5c(F)c(C(=O)O[Cr])sc45)cc3c(-c3ccc([Cr])s3)c2s1.N#CC(C#N)=C1/C(=C/c2cc3sc4c(c3s2)C([Ti])([Ti])c2cc3c(cc2-4)C([Ti])([Ti])c2cc4c(cc2-3)C([Ti])([Ti])c2c-4sc3cc(/C=C4\C(=O)c5ccccc5C4=C(C#N)C#N)sc23)C(=O)c2ccccc21,[C][C][=C][C][=C][Branch1][O][C][=C][C][=C][Branch1][C][Cr][S][Ring1][=Branch1][C][S][C][Branch2][Ring1][O][C][S][C][Branch1][C][C][=C][C][Branch1][C][F][=C][Branch1][#Branch1][C][=Branch1][C][=O][O][Cr][S][C][=Ring1][=C][Ring1][#Branch2][=C][C][=Ring2][Ring1][Ring1][C][Branch1][O][C][=C][C][=C][Branch1][C][Cr][S][Ring1][=Branch1][=C][Ring2][Ring2][Ring1][S][Ring2][Ring2][=Branch1].[N][#C][C][Branch1][Ring1][C][#N][=C][/C][=Branch2][Branch2][Branch2][=C][/C][=C][C][S][C][=C][Branch1][#Branch1][C][=Ring1][Branch1][S][Ring1][Branch2][C][Branch1][C][Ti][Branch1][C][Ti][C][=C][C][=C][Branch1][#Branch1][C][=C][Ring1][=Branch1][Ring1][=N][C][Branch1][C][Ti][Branch1][C][Ti][C][=C][C][=C][Branch1][#Branch1][C][=C][Ring1][=Branch1][Ring1][=N][C][Branch1][C][Ti][Branch1][C][Ti][C][=C][Ring1][=Branch2][S][C][C][=C][Branch2][Ring1][=Branch2][/C][=C][\C][=Branch1][C][=O][C][=C][C][=C][C][=C][Ring1][=Branch1][C][Ring1][#Branch2][=C][Branch1][Ring1][C][#N][C][#N][S][C][Ring2][Ring1][Branch2][=Ring2][Ring1][Branch1][C][=Branch1][C][=O][C][=C][C][=C][C][=C][Ring1][=Branch1][Ring2][Branch1][S],{[$]c1cc2c(-c3ccc([Cr])s3)c3sc(-c4sc([$])c5c(F)c(C(=O)O[Cr])sc45)cc3c(-c3ccc([Cr])s3)c2s1}.N#CC(C#N)=C1/C(=C/c2cc3sc4c(c3s2)C([Ti])([Ti])c2cc3c(cc2-4)C([Ti])([Ti])c2cc4c(cc2-3)C([Ti])([Ti])c2c-4sc3cc(/C=C4\C(=O)c5ccccc5C4=C(C#N)C#N)sc23)C(=O)c2ccccc21
PBDB-TF,IT-4F,-5.498461538461539,-3.65,1.8075,-1.84846153846154,-5.670384615384615,-4.058076923076923,-1.6123076923076916,0.7441176470588237,1:1,CB,DIO,100.0,MoOx,ZnO,13.5,13.5198,0.84,22.2,72.5,Cc1ccc(-c2sc(-c3ccc(-c4cc5c(-c6cc(F)c([Cr])s6)c6sc(C)cc6c(-c6cc(F)c([Cr])s6)c5s4)s3)c3c2C(=O)c2c([Cr])sc([Cr])c2C3=O)s1.N#CC(C#N)=C1/C(=C/c2cc3sc4c(c3s2)C(c2ccc([Mo])cc2)(c2ccc([Mo])cc2)c2cc3c(cc2-4)C(c2ccc([Mo])cc2)(c2ccc([Mo])cc2)c2c-3sc3cc(/C=C4\C(=O)c5cc(F)c(F)cc5C4=C(C#N)C#N)sc23)C(=O)c2cc(F)c(F)cc21,[C][C][=C][C][=C][Branch2][#Branch1][P][C][S][C][Branch2][Branch1][P][C][=C][C][=C][Branch2][Branch1][=Branch1][C][=C][C][=C][Branch1][=C][C][=C][C][Branch1][C][F][=C][Branch1][C][Cr][S][Ring1][#Branch1][C][S][C][Branch1][C][C][=C][C][=Ring1][=Branch1][C][Branch1][=C][C][=C][C][Branch1][C][F][=C][Branch1][C][Cr][S][Ring1][#Branch1][=C][Ring2][Ring1][Branch2][S][Ring2][Ring1][O][S][Ring2][Ring1][S][=C][C][=Ring2][Ring2][Branch1][C][=Branch1][C][=O][C][=C][Branch1][C][Cr][S][C][Branch1][C][Cr][=C][Ring1][#Branch1][C][Ring1][N][=O][S][Ring2][Branch1][Branch1].[N][#C][C][Branch1][Ring1][C][#N][=C][/C][=Branch2][#Branch2][Branch1][=C][/C][=C][C][S][C][=C][Branch1][#Branch1][C][=Ring1][Branch1][S][Ring1][Branch2][C][Branch1][N][C][=C][C][=C][Branch1][C][Mo][C][=C][Ring1][#Branch1][Branch1][N][C][=C][C][=C][Branch1][C][Mo][C][=C][Ring1][#Branch1][C][=C][C][=C][Branch1][Branch2][C][=C][Ring1][=Branch1][Ring2][Ring1][=Branch2][C][Branch1][N][C][=C][C][=C][Branch1][C][Mo][C][=C][Ring1][#Branch1][Branch1][N][C][=C][C][=C][Branch1][C][Mo][C][=C][Ring1][#Branch1][C][=C][Ring2][Ring1][Branch1][S][C][C][=C][Branch2][Ring1][#C][/C][=C][\C][=Branch1][C][=O][C][=C][C][Branch1][C][F][=C][Branch1][C][F][C][=C][Ring1][Branch2][C][Ring1][N][=C][Branch1][Ring1][C][#N][C][#N][S][C][Ring2][Ring1][#Branch2][=Ring2][Ring1][#Branch1][C][=Branch1][C][=O][C][=C][C][Branch1][C][F][=C][Branch1][C][F][C][=C][Ring1][Branch2][Ring2][#Branch1][Ring1],{[$]c1ccc(-c2sc(-c3ccc(-c4cc5c(-c6cc(F)c([Cr])s6)c6sc([$])cc6c(-c6cc(F)c([Cr])s6)c5s4)s3)c3c2C(=O)c2c([Cr])sc([Cr])c2C3=O)s1}.N#CC(C#N)=C1/C(=C/c2cc3sc4c(c3s2)C(c2ccc([Mo])cc2)(c2ccc([Mo])cc2)c2cc3c(cc2-4)C(c2ccc([Mo])cc2)(c2ccc([Mo])cc2)c2c-3sc3cc(/C=C4\C(=O)c5cc(F)c(F)cc5C4=C(C#N)C#N)sc23)C(=O)c2cc(F)c(F)cc21
PBDB-T,NFTI,-5.297777777777778,-3.4170000000000003,1.7681818181818183,-1.8807777777777777,-5.46,-3.77,-1.69,1.57,1:0.9,o-DCB,DPE,25.0,PEDOT:PSS,FPI,8.34,8.3023692,0.898,16.22,57.0,Cc1ccc(-c2sc(-c3ccc(-c4cc5c(-c6ccc([Cr])s6)c6sc(C)cc6c(-c6ccc([Cr])s6)c5s4)s3)c3c2C(=O)c2c([Cr])sc([Cr])c2C3=O)s1.N#CC(C#N)=C1/C(=C/c2sc(-c3ccc4c(c3)C([Ti])([Ti])c3cc(-c5sc(/C=C6\C(=O)c7ccccc7C6=C(C#N)C#N)c6cc([Ti])sc56)ccc3-4)c3sc([Ti])cc23)C(=O)c2ccccc21,[C][C][=C][C][=C][Branch2][#Branch1][O][C][S][C][Branch2][Branch1][O][C][=C][C][=C][Branch2][Ring2][S][C][=C][C][=C][Branch1][O][C][=C][C][=C][Branch1][C][Cr][S][Ring1][=Branch1][C][S][C][Branch1][C][C][=C][C][=Ring1][=Branch1][C][Branch1][O][C][=C][C][=C][Branch1][C][Cr][S][Ring1][=Branch1][=C][Ring2][Ring1][=Branch1][S][Ring2][Ring1][=Branch2][S][Ring2][Ring1][=C][=C][C][=Ring2][Ring2][Ring1][C][=Branch1][C][=O][C][=C][Branch1][C][Cr][S][C][Branch1][C][Cr][=C][Ring1][#Branch1][C][Ring1][N][=O][S][Ring2][Branch1][Ring1].[N][#C][C][Branch1][Ring1][C][#N][=C][/C][=Branch2][#Branch1][S][=C][/C][S][C][Branch2][=Branch1][N][C][=C][C][=C][C][=Branch1][Ring2][=C][Ring1][=Branch1][C][Branch1][C][Ti][Branch1][C][Ti][C][=C][C][Branch2][Ring2][N][C][S][C][Branch2][Ring1][=Branch2][/C][=C][\C][=Branch1][C][=O][C][=C][C][=C][C][=C][Ring1][=Branch1][C][Ring1][#Branch2][=C][Branch1][Ring1][C][#N][C][#N][=C][C][=C][Branch1][C][Ti][S][C][=Ring2][Ring1][=Branch2][Ring1][=Branch1][=C][C][=C][Ring2][Ring1][#C][Ring2][Ring2][Branch1][=C][S][C][Branch1][C][Ti][=C][C][=Ring2][Ring2][P][Ring1][=Branch1][C][=Branch1][C][=O][C][=C][C][=C][C][=C][Ring1][=Branch1][Ring2][Branch1][N],{[$]c1ccc(-c2sc(-c3ccc(-c4cc5c(-c6ccc([Cr])s6)c6sc([$])cc6c(-c6ccc([Cr])s6)c5s4)s3)c3c2C(=O)c2c([Cr])sc([Cr])c2C3=O)s1}.N#CC(C#N)=C1/C(=C/c2sc(-c3ccc4c(c3)C([Ti])([Ti])c3cc(-c5sc(/C=C6\C(=O)c7ccccc7C6=C(C#N)C#N)c6cc([Ti])sc56)ccc3-4)c3sc([Ti])cc23)C(=O)c2ccccc21
FTAZ,F9IC,-5.43,-3.3200000000000003,2.0,-2.1099999999999994,-5.52,-3.995,-1.5249999999999997,1.485,1:1.5,CF,DIO,25.0,MoOx,ZnO/PFN-Br,11.7,11.7093744,0.873,20.2,66.4,Cc1ccc(-c2c(F)c(F)c(-c3ccc(-c4cc5c([Co])c6sc(C)cc6c([Co])c5s4)s3)c3nn([Co])nc23)s1.CCCCCCc1ccc(C2(c3ccc(CCCCCC)cc3)c3cc4c(cc3-c3sc5c(sc6cc(C=C7C(=O)c8cc(F)c(F)cc8C7=C(C#N)C#N)sc65)c32)C(c2ccc(CCCCCC)cc2)(c2ccc(CCCCCC)cc2)c2c-4sc3c2sc2cc(C=C4C(=O)c5cc(F)c(F)cc5C4=C(C#N)C#N)sc23)cc1,[C][C][=C][C][=C][Branch2][Branch1][P][C][=C][Branch1][C][F][C][Branch1][C][F][=C][Branch2][Ring2][#Branch1][C][=C][C][=C][Branch2][Ring1][N][C][=C][C][=C][Branch1][C][Co][C][S][C][Branch1][C][C][=C][C][=Ring1][=Branch1][C][Branch1][C][Co][=C][Ring1][N][S][Ring1][#C][S][Ring2][Ring1][Ring2][C][=N][N][Branch1][C][Co][N][=C][Ring2][Ring1][S][Ring1][=Branch1][S][Ring2][Ring2][Branch1].[C][C][C][C][C][C][C][=C][C][=C][Branch2][=N][=Branch1][C][Branch1][P][C][=C][C][=C][Branch1][#Branch1][C][C][C][C][C][C][C][=C][Ring1][N][C][=C][C][=C][Branch2][Branch1][S][C][=C][Ring1][=Branch1][C][S][C][=C][Branch2][Ring2][=C][S][C][C][=C][Branch2][Ring1][#C][C][=C][C][=Branch1][C][=O][C][=C][C][Branch1][C][F][=C][Branch1][C][F][C][=C][Ring1][Branch2][C][Ring1][N][=C][Branch1][Ring1][C][#N][C][#N][S][C][=Ring2][Ring1][#Branch1][Ring2][Ring1][#Branch2][C][=Ring2][Ring1][=N][Ring2][Ring2][S][C][Branch1][P][C][=C][C][=C][Branch1][#Branch1][C][C][C][C][C][C][C][=C][Ring1][N][Branch1][P][C][=C][C][=C][Branch1][#Branch1][C][C][C][C][C][C][C][=C][Ring1][N][C][=C][Ring2][Branch1][N][S][C][=C][Ring1][Branch1][S][C][C][=C][Branch2][Ring1][#C][C][=C][C][=Branch1][C][=O][C][=C][C][Branch1][C][F][=C][Branch1][C][F][C][=C][Ring1][Branch2][C][Ring1][N][=C][Branch1][Ring1][C][#N][C][#N][S][C][=Ring2][Ring1][#Branch1][Ring2][Ring1][#Branch2][C][=C][Ring2][Branch2][N],{[$]c1ccc(-c2c(F)c(F)c(-c3ccc(-c4cc5c([Co])c6sc([$])cc6c([Co])c5s4)s3)c3nn([Co])nc23)s1}.CCCCCCc1ccc(C2(c3ccc(CCCCCC)cc3)c3cc4c(cc3-c3sc5c(sc6cc(C=C7C(=O)c8cc(F)c(F)cc8C7=C(C#N)C#N)sc65)c32)C(c2ccc(CCCCCC)cc2)(c2ccc(CCCCCC)cc2)c2c-4sc3c2sc2cc(C=C4C(=O)c5cc(F)c(F)cc5C4=C(C#N)C#N)sc23)cc1
PBDTTz-BP,ITIC,-5.025,-2.97,1.945,-2.055,-5.574285714285715,-3.9143137254901954,-1.659971988795519,1.5857894736842106,1:1,CB,_,25.0,PEDOT:PSS,PFN-Br,9.2,9.198738432,0.832,17.96,61.56,Cc1ccc(-c2c(F)c(F)c(-c3ccc(-c4cc5c(-c6ccc(-c7ccc(O[Sc])cc7)cc6)c6sc(C)cc6c(-c6ccc(-c7ccc(O[Sc])cc7)cc6)c5s4)s3)c3nn([Co])nc23)s1.N#CC(C#N)=C1/C(=C/c2cc3sc4c(c3s2)C(c2ccc([Mo])cc2)(c2ccc([Mo])cc2)c2cc3c(cc2-4)C(c2ccc([Mo])cc2)(c2ccc([Mo])cc2)c2c-3sc3cc(/C=C4\C(=O)c5ccccc5C4=C(C#N)C#N)sc23)C(=O)c2ccccc21,[C][C][=C][C][=C][Branch2][Branch2][#C][C][=C][Branch1][C][F][C][Branch1][C][F][=C][Branch2][#Branch1][Branch1][C][=C][C][=C][Branch2][=Branch1][#Branch2][C][=C][C][=C][Branch2][Ring1][#Branch1][C][=C][C][=C][Branch1][=N][C][=C][C][=C][Branch1][Ring1][O][Sc][C][=C][Ring1][Branch2][C][=C][Ring1][=C][C][S][C][Branch1][C][C][=C][C][=Ring1][=Branch1][C][Branch2][Ring1][#Branch1][C][=C][C][=C][Branch1][=N][C][=C][C][=C][Branch1][Ring1][O][Sc][C][=C][Ring1][Branch2][C][=C][Ring1][=C][=C][Ring2][Ring2][=Branch1][S][Ring2][Ring2][=Branch2][S][Ring2][Ring2][=C][C][=N][N][Branch1][C][Co][N][=C][Ring2][Branch1][#Branch2][Ring1][=Branch1][S][Ring2][Branch1][#C].[N][#C][C][Branch1][Ring1][C][#N][=C][/C][=Branch2][=Branch2][#C][=C][/C][=C][C][S][C][=C][Branch1][#Branch1][C][=Ring1][Branch1][S][Ring1][Branch2][C][Branch1][N][C][=C][C][=C][Branch1][C][Mo][C][=C][Ring1][#Branch1][Branch1][N][C][=C][C][=C][Branch1][C][Mo][C][=C][Ring1][#Branch1][C][=C][C][=C][Branch1][Branch2][C][=C][Ring1][=Branch1][Ring2][Ring1][=Branch2][C][Branch1][N][C][=C][C][=C][Branch1][C][Mo][C][=C][Ring1][#Branch1][Branch1][N][C][=C][C][=C][Branch1][C][Mo][C][=C][Ring1][#Branch1][C][=C][Ring2][Ring1][Branch1][S][C][C][=C][Branch2][Ring1][=Branch2][/C][=C][\C][=Branch1][C][=O][C][=C][C][=C][C][=C][Ring1][=Branch1][C][Ring1][#Branch2][=C][Branch1][Ring1][C][#N][C][#N][S][C][Ring2][Ring1][Branch2][=Ring2][Ring1][Branch1][C][=Branch1][C][=O][C][=C][C][=C][C][=C][Ring1][=Branch1][Ring2][=Branch1][#C],{[$]c1ccc(-c2c(F)c(F)c(-c3ccc(-c4cc5c(-c6ccc(-c7ccc(O[Sc])cc7)cc6)c6sc([$])cc6c(-c6ccc(-c7ccc(O[Sc])cc7)cc6)c5s4)s3)c3nn([Co])nc23)s1}.N#CC(C#N)=C1/C(=C/c2cc3sc4c(c3s2)C(c2ccc([Mo])cc2)(c2ccc([Mo])cc2)c2cc3c(cc2-4)C(c2ccc([Mo])cc2)(c2ccc([Mo])cc2)c2c-3sc3cc(/C=C4\C(=O)c5ccccc5C4=C(C#N)C#N)sc23)C(=O)c2ccccc21
PJ1,m-ITIC,-5.38,-3.38,2.0,-2.0,-5.527142857142858,-3.8541666666666674,-1.6729761904761902,1.5783333333333334,1:1.5,CF,DIO,130.0,PEDOT:PSS,PDINO,6.41,6.408696,1.031,11.1,56.0,Cc1cc([Mn])c(-c2sc(-c3sc(-c4cc5c(-c6ccc([V])s6)c6sc(C)cc6c(-c6ccc([V])s6)c5s4)cc3[Mn])c3c2C(=O)N([Sc])C3=O)s1.N#CC(C#N)=C1/C(=C/c2cc3sc4c(c3s2)C(c2cccc([Mo])c2)(c2cccc([Mo])c2)c2cc3c(cc2-4)C(c2cccc([Mo])c2)(c2cccc([Mo])c2)c2c-3sc3cc(/C=C4\C(=O)c5ccccc5C4=C(C#N)C#N)sc23)C(=O)c2ccccc21,[C][C][=C][C][Branch1][C][Mn][=C][Branch2][#Branch1][Ring1][C][S][C][Branch2][Branch1][N][C][S][C][Branch2][Ring2][S][C][=C][C][=C][Branch1][O][C][=C][C][=C][Branch1][C][V][S][Ring1][=Branch1][C][S][C][Branch1][C][C][=C][C][=Ring1][=Branch1][C][Branch1][O][C][=C][C][=C][Branch1][C][V][S][Ring1][=Branch1][=C][Ring2][Ring1][=Branch1][S][Ring2][Ring1][=Branch2][=C][C][=Ring2][Ring1][=C][Mn][=C][C][=Ring2][Ring2][Ring2][C][=Branch1][C][=O][N][Branch1][C][Sc][C][Ring1][#Branch1][=O][S][Ring2][Ring2][S].[N][#C][C][Branch1][Ring1][C][#N][=C][/C][=Branch2][=Branch2][#C][=C][/C][=C][C][S][C][=C][Branch1][#Branch1][C][=Ring1][Branch1][S][Ring1][Branch2][C][Branch1][N][C][=C][C][=C][C][Branch1][C][Mo][=C][Ring1][#Branch1][Branch1][N][C][=C][C][=C][C][Branch1][C][Mo][=C][Ring1][#Branch1][C][=C][C][=C][Branch1][Branch2][C][=C][Ring1][=Branch1][Ring2][Ring1][=Branch2][C][Branch1][N][C][=C][C][=C][C][Branch1][C][Mo][=C][Ring1][#Branch1][Branch1][N][C][=C][C][=C][C][Branch1][C][Mo][=C][Ring1][#Branch1][C][=C][Ring2][Ring1][Branch1][S][C][C][=C][Branch2][Ring1][=Branch2][/C][=C][\C][=Branch1][C][=O][C][=C][C][=C][C][=C][Ring1][=Branch1][C][Ring1][#Branch2][=C][Branch1][Ring1][C][#N][C][#N][S][C][Ring2][Ring1][Branch2][=Ring2][Ring1][Branch1][C][=Branch1][C][=O][C][=C][C][=C][C][=C][Ring1][=Branch1][Ring2][=Branch1][#C],{[$]c1cc([Mn])c(-c2sc(-c3sc(-c4cc5c(-c6ccc([V])s6)c6sc([$])cc6c(-c6ccc([V])s6)c5s4)cc3[Mn])c3c2C(=O)N([Sc])C3=O)s1}.N#CC(C#N)=C1/C(=C/c2cc3sc4c(c3s2)C(c2cccc([Mo])c2)(c2cccc([Mo])c2)c2cc3c(cc2-4)C(c2cccc([Mo])c2)(c2cccc([Mo])c2)c2c-3sc3cc(/C=C4\C(=O)c5ccccc5C4=C(C#N)C#N)sc23)C(=O)c2ccccc21
PJ1,IDIC,-5.38,-3.38,2.0,-2.0,-5.705,-3.996875,-1.708125,1.6358333333333337,1:1.5,CF,DIO,130.0,PEDOT:PSS,PDINO,6.18,6.161856,0.958,12.0,53.6,Cc1cc([Mn])c(-c2sc(-c3sc(-c4cc5c(-c6ccc([V])s6)c6sc(C)cc6c(-c6ccc([V])s6)c5s4)cc3[Mn])c3c2C(=O)N([Sc])C3=O)s1.N#CC(C#N)=C1/C(=C/c2cc3c(s2)-c2cc4c(cc2C3([Mo])[Mo])-c2sc(/C=C3\C(=O)c5ccccc5C3=C(C#N)C#N)cc2C4([Mo])[Mo])C(=O)c2ccccc21,[C][C][=C][C][Branch1][C][Mn][=C][Branch2][#Branch1][Ring1][C][S][C][Branch2][Branch1][N][C][S][C][Branch2][Ring2][S][C][=C][C][=C][Branch1][O][C][=C][C][=C][Branch1][C][V][S][Ring1][=Branch1][C][S][C][Branch1][C][C][=C][C][=Ring1][=Branch1][C][Branch1][O][C][=C][C][=C][Branch1][C][V][S][Ring1][=Branch1][=C][Ring2][Ring1][=Branch1][S][Ring2][Ring1][=Branch2][=C][C][=Ring2][Ring1][=C][Mn][=C][C][=Ring2][Ring2][Ring2][C][=Branch1][C][=O][N][Branch1][C][Sc][C][Ring1][#Branch1][=O][S][Ring2][Ring2][S].[N][#C][C][Branch1][Ring1][C][#N][=C][/C][=Branch2][=Branch1][#Branch1][=C][/C][=C][C][=C][Branch1][Ring2][S][Ring1][Branch1][C][=C][C][=C][Branch1][N][C][=C][Ring1][=Branch1][C][Ring1][#Branch2][Branch1][C][Mo][Mo][C][S][C][Branch2][Ring1][=Branch2][/C][=C][\C][=Branch1][C][=O][C][=C][C][=C][C][=C][Ring1][=Branch1][C][Ring1][#Branch2][=C][Branch1][Ring1][C][#N][C][#N][=C][C][=Ring2][Ring1][Branch1][C][Ring2][Ring1][=N][Branch1][C][Mo][Mo][C][=Branch1][C][=O][C][=C][C][=C][C][=C][Ring1][=Branch1][Ring2][Ring2][P],{[$]c1cc([Mn])c(-c2sc(-c3sc(-c4cc5c(-c6ccc([V])s6)c6sc([$])cc6c(-c6ccc([V])s6)c5s4)cc3[Mn])c3c2C(=O)N([Sc])C3=O)s1}.N#CC(C#N)=C1/C(=C/c2cc3c(s2)-c2cc4c(cc2C3([Mo])[Mo])-c2sc(/C=C3\C(=O)c5ccccc5C3=C(C#N)C#N)cc2C4([Mo])[Mo])C(=O)c2ccccc21