Donor,Acceptor,HOMO_D_eV,LUMO_D_eV,Eg_D_eV,Ehl_D_eV,HOMO_A_eV,LUMO_A_eV,Ehl_A_eV,Eg_A_eV,D_A_ratio_m_m,solvent,solvent_additive,annealing_temperature,hole_contact_layer,electron_contact_layer,PCE_percent,calc_PCE_percent,Voc_V,Jsc_mA_cm_pow_neg2,FF_percent,DA_SMILES,DA_SELFIES,DA_BigSMILES
PDBT-T1,IC-C6IDT-IC,-5.36,-3.43,1.85,-1.93,-5.705,-3.996875,-1.708125,1.6358333333333337,1:1,CF,_,25.0,MoOx,ZnO,8.71,8.706425,0.89,15.05,65.0,Cc1ccc(-c2sc(-c3ccc(-c4cc5sc6c(-c7ccc([Ti])s7)c7c(sc8cc(C)sc87)c(-c7ccc([Ti])s7)c6c5s4)s3)c3c2C(=O)c2c([Cr])sc([Cr])c2C3=O)s1.N#CC(C#N)=C1/C(=C/c2cc3c(s2)-c2cc4c(cc2C3([Mo])[Mo])-c2sc(/C=C3\C(=O)c5ccccc5C3=C(C#N)C#N)cc2C4([Mo])[Mo])C(=O)c2ccccc21,[C][C][=C][C][=C][Branch2][Branch2][Branch2][C][S][C][Branch2][=Branch1][Branch2][C][=C][C][=C][Branch2][Branch1][=N][C][=C][C][S][C][=C][Branch1][O][C][=C][C][=C][Branch1][C][Ti][S][Ring1][=Branch1][C][=C][Branch1][=C][S][C][C][=C][Branch1][C][C][S][C][=Ring1][=Branch1][Ring1][=Branch2][C][Branch1][O][C][=C][C][=C][Branch1][C][Ti][S][Ring1][=Branch1][=C][Ring2][Ring1][=Branch2][C][=Ring2][Ring1][N][S][Ring2][Ring1][#C][S][Ring2][Ring2][Ring2][=C][C][=Ring2][Ring2][=Branch2][C][=Branch1][C][=O][C][=C][Branch1][C][Cr][S][C][Branch1][C][Cr][=C][Ring1][#Branch1][C][Ring1][N][=O][S][Ring2][Branch1][=Branch2].[N][#C][C][Branch1][Ring1][C][#N][=C][/C][=Branch2][=Branch1][#Branch1][=C][/C][=C][C][=C][Branch1][Ring2][S][Ring1][Branch1][C][=C][C][=C][Branch1][N][C][=C][Ring1][=Branch1][C][Ring1][#Branch2][Branch1][C][Mo][Mo][C][S][C][Branch2][Ring1][=Branch2][/C][=C][\C][=Branch1][C][=O][C][=C][C][=C][C][=C][Ring1][=Branch1][C][Ring1][#Branch2][=C][Branch1][Ring1][C][#N][C][#N][=C][C][=Ring2][Ring1][Branch1][C][Ring2][Ring1][=N][Branch1][C][Mo][Mo][C][=Branch1][C][=O][C][=C][C][=C][C][=C][Ring1][=Branch1][Ring2][Ring2][P],{[$]c1ccc(-c2sc(-c3ccc(-c4cc5sc6c(-c7ccc([Ti])s7)c7c(sc8cc([$])sc87)c(-c7ccc([Ti])s7)c6c5s4)s3)c3c2C(=O)c2c([Cr])sc([Cr])c2C3=O)s1}.N#CC(C#N)=C1/C(=C/c2cc3c(s2)-c2cc4c(cc2C3([Mo])[Mo])-c2sc(/C=C3\C(=O)c5ccccc5C3=C(C#N)C#N)cc2C4([Mo])[Mo])C(=O)c2ccccc21
PBDTT-6ttTPD,ITIC,-5.36,-3.51,1.85,-1.8500000000000003,-5.574285714285715,-3.9143137254901954,-1.659971988795519,1.5857894736842106,1:1,CF,DIO,25.0,MoOx,ZnO,9.98,9.98250588,0.942,15.63,67.8,CCCCCCCCCCC(CCCCCC)N1C(=O)c2c(-c3cc4sc(C)c(CCCCCC)c4s3)sc(-c3cc4sc(-c5cc6c(-c7ccc(C(CC)CCCCCC)s7)c7sc(C)cc7c(-c7ccc(C(CC)CCCCCC)s7)c6s5)c(CCCCCC)c4s3)c2C1=O.N#CC(C#N)=C1/C(=C/c2cc3sc4c(c3s2)C(c2ccc([Mo])cc2)(c2ccc([Mo])cc2)c2cc3c(cc2-4)C(c2ccc([Mo])cc2)(c2ccc([Mo])cc2)c2c-3sc3cc(/C=C4\C(=O)c5ccccc5C4=C(C#N)C#N)sc23)C(=O)c2ccccc21,[C][C][C][C][C][C][C][C][C][C][C][Branch1][#Branch1][C][C][C][C][C][C][N][C][=Branch1][C][=O][C][=C][Branch2][Ring1][Branch2][C][=C][C][S][C][Branch1][C][C][=C][Branch1][#Branch1][C][C][C][C][C][C][C][=Ring1][N][S][Ring1][#C][S][C][Branch2][#Branch1][#C][C][=C][C][S][C][Branch2][=Branch1][=Branch1][C][=C][C][=C][Branch2][Ring1][Branch1][C][=C][C][=C][Branch1][N][C][Branch1][Ring1][C][C][C][C][C][C][C][C][S][Ring1][=C][C][S][C][Branch1][C][C][=C][C][=Ring1][=Branch1][C][Branch2][Ring1][Branch1][C][=C][C][=C][Branch1][N][C][Branch1][Ring1][C][C][C][C][C][C][C][C][S][Ring1][=C][=C][Ring2][Ring2][=Branch1][S][Ring2][Ring2][=Branch2][=C][Branch1][#Branch1][C][C][C][C][C][C][C][=Ring2][Branch1][Ring2][S][Ring2][Branch1][#Branch1][=C][Ring2][=Branch1][O][C][Ring2][=Branch1][#C][=O].[N][#C][C][Branch1][Ring1][C][#N][=C][/C][=Branch2][=Branch2][#C][=C][/C][=C][C][S][C][=C][Branch1][#Branch1][C][=Ring1][Branch1][S][Ring1][Branch2][C][Branch1][N][C][=C][C][=C][Branch1][C][Mo][C][=C][Ring1][#Branch1][Branch1][N][C][=C][C][=C][Branch1][C][Mo][C][=C][Ring1][#Branch1][C][=C][C][=C][Branch1][Branch2][C][=C][Ring1][=Branch1][Ring2][Ring1][=Branch2][C][Branch1][N][C][=C][C][=C][Branch1][C][Mo][C][=C][Ring1][#Branch1][Branch1][N][C][=C][C][=C][Branch1][C][Mo][C][=C][Ring1][#Branch1][C][=C][Ring2][Ring1][Branch1][S][C][C][=C][Branch2][Ring1][=Branch2][/C][=C][\C][=Branch1][C][=O][C][=C][C][=C][C][=C][Ring1][=Branch1][C][Ring1][#Branch2][=C][Branch1][Ring1][C][#N][C][#N][S][C][Ring2][Ring1][Branch2][=Ring2][Ring1][Branch1][C][=Branch1][C][=O][C][=C][C][=C][C][=C][Ring1][=Branch1][Ring2][=Branch1][#C],{CCCCCCCCCCC(CCCCCC)N1C(=O)c2c(-c3cc4sc([$])c(CCCCCC)c4s3)sc(-c3cc4sc(-c5cc6c(-c7ccc(C(CC)CCCCCC)s7)c7sc([$])cc7c(-c7ccc(C(CC)CCCCCC)s7)c6s5)c(CCCCCC)c4s3)c2C1=O}.N#CC(C#N)=C1/C(=C/c2cc3sc4c(c3s2)C(c2ccc([Mo])cc2)(c2ccc([Mo])cc2)c2cc3c(cc2-4)C(c2ccc([Mo])cc2)(c2ccc([Mo])cc2)c2c-3sc3cc(/C=C4\C(=O)c5ccccc5C4=C(C#N)C#N)sc23)C(=O)c2ccccc21
PMOT16,ITIC,-5.52,-3.66,1.86,-1.86,-5.574285714285715,-3.9143137254901954,-1.659971988795519,1.5857894736842106,1:1,CF,DIO,25.0,MoOx,ZnO,7.63,7.638631,1.001,13.0,58.7,COc1cc(-c2c3cc(-c4sc5cc(-c6sc(-c7cc8sc(C)c([Mo])c8s7)c7c6C(=O)N([Sc])C7=O)sc5c4[Mo])sc3c(-c3cc(OC)c([Cr])s3)c3cc(C)sc23)sc1[Cr].N#CC(C#N)=C1/C(=C/c2cc3sc4c(c3s2)C(c2ccc([Mo])cc2)(c2ccc([Mo])cc2)c2cc3c(cc2-4)C(c2ccc([Mo])cc2)(c2ccc([Mo])cc2)c2c-3sc3cc(/C=C4\C(=O)c5ccccc5C4=C(C#N)C#N)sc23)C(=O)c2ccccc21,[C][O][C][C][=C][Branch2][Branch2][Branch1][C][=C][C][=C][Branch2][Branch1][O][C][S][C][C][=C][Branch2][Ring2][=Branch2][C][S][C][Branch2][Ring1][Ring1][C][=C][C][S][C][Branch1][C][C][=C][Branch1][C][Mo][C][=Ring1][#Branch1][S][Ring1][#Branch2][=C][C][=Ring1][#C][C][=Branch1][C][=O][N][Branch1][C][Sc][C][Ring1][#Branch1][=O][S][C][=Ring2][Ring1][#Branch2][C][=Ring2][Ring1][=N][Mo][S][C][Ring2][Ring2][Ring1][=C][Branch1][#C][C][=C][C][Branch1][Ring1][O][C][=C][Branch1][C][Cr][S][Ring1][Branch2][C][C][=C][Branch1][C][C][S][C][Ring2][Branch1][Ring1][=Ring1][=Branch1][S][C][=Ring2][Branch1][Branch2][Cr].[N][#C][C][Branch1][Ring1][C][#N][=C][/C][=Branch2][=Branch2][#C][=C][/C][=C][C][S][C][=C][Branch1][#Branch1][C][=Ring1][Branch1][S][Ring1][Branch2][C][Branch1][N][C][=C][C][=C][Branch1][C][Mo][C][=C][Ring1][#Branch1][Branch1][N][C][=C][C][=C][Branch1][C][Mo][C][=C][Ring1][#Branch1][C][=C][C][=C][Branch1][Branch2][C][=C][Ring1][=Branch1][Ring2][Ring1][=Branch2][C][Branch1][N][C][=C][C][=C][Branch1][C][Mo][C][=C][Ring1][#Branch1][Branch1][N][C][=C][C][=C][Branch1][C][Mo][C][=C][Ring1][#Branch1][C][=C][Ring2][Ring1][Branch1][S][C][C][=C][Branch2][Ring1][=Branch2][/C][=C][\C][=Branch1][C][=O][C][=C][C][=C][C][=C][Ring1][=Branch1][C][Ring1][#Branch2][=C][Branch1][Ring1][C][#N][C][#N][S][C][Ring2][Ring1][Branch2][=Ring2][Ring1][Branch1][C][=Branch1][C][=O][C][=C][C][=C][C][=C][Ring1][=Branch1][Ring2][=Branch1][#C],{COc1cc(-c2c3cc(-c4sc5cc(-c6sc(-c7cc8sc([$])c([Mo])c8s7)c7c6C(=O)N([Sc])C7=O)sc5c4[Mo])sc3c(-c3cc(OC)c([Cr])s3)c3cc([$])sc23)sc1[Cr]}.N#CC(C#N)=C1/C(=C/c2cc3sc4c(c3s2)C(c2ccc([Mo])cc2)(c2ccc([Mo])cc2)c2cc3c(cc2-4)C(c2ccc([Mo])cc2)(c2ccc([Mo])cc2)c2c-3sc3cc(/C=C4\C(=O)c5ccccc5C4=C(C#N)C#N)sc23)C(=O)c2ccccc21
PBDTT-6ttTPD,IDIC,-5.36,-3.51,1.85,-1.8500000000000003,-5.705,-3.996875,-1.708125,1.6358333333333337,1:1,CF,DIO,25.0,MoOx,ZnO,8.58,8.5768713,0.822,15.93,65.5,CCCCCCCCCCC(CCCCCC)N1C(=O)c2c(-c3cc4sc(C)c(CCCCCC)c4s3)sc(-c3cc4sc(-c5cc6c(-c7ccc(C(CC)CCCCCC)s7)c7sc(C)cc7c(-c7ccc(C(CC)CCCCCC)s7)c6s5)c(CCCCCC)c4s3)c2C1=O.N#CC(C#N)=C1/C(=C/c2cc3c(s2)-c2cc4c(cc2C3([Mo])[Mo])-c2sc(/C=C3\C(=O)c5ccccc5C3=C(C#N)C#N)cc2C4([Mo])[Mo])C(=O)c2ccccc21,[C][C][C][C][C][C][C][C][C][C][C][Branch1][#Branch1][C][C][C][C][C][C][N][C][=Branch1][C][=O][C][=C][Branch2][Ring1][Branch2][C][=C][C][S][C][Branch1][C][C][=C][Branch1][#Branch1][C][C][C][C][C][C][C][=Ring1][N][S][Ring1][#C][S][C][Branch2][#Branch1][#C][C][=C][C][S][C][Branch2][=Branch1][=Branch1][C][=C][C][=C][Branch2][Ring1][Branch1][C][=C][C][=C][Branch1][N][C][Branch1][Ring1][C][C][C][C][C][C][C][C][S][Ring1][=C][C][S][C][Branch1][C][C][=C][C][=Ring1][=Branch1][C][Branch2][Ring1][Branch1][C][=C][C][=C][Branch1][N][C][Branch1][Ring1][C][C][C][C][C][C][C][C][S][Ring1][=C][=C][Ring2][Ring2][=Branch1][S][Ring2][Ring2][=Branch2][=C][Branch1][#Branch1][C][C][C][C][C][C][C][=Ring2][Branch1][Ring2][S][Ring2][Branch1][#Branch1][=C][Ring2][=Branch1][O][C][Ring2][=Branch1][#C][=O].[N][#C][C][Branch1][Ring1][C][#N][=C][/C][=Branch2][=Branch1][#Branch1][=C][/C][=C][C][=C][Branch1][Ring2][S][Ring1][Branch1][C][=C][C][=C][Branch1][N][C][=C][Ring1][=Branch1][C][Ring1][#Branch2][Branch1][C][Mo][Mo][C][S][C][Branch2][Ring1][=Branch2][/C][=C][\C][=Branch1][C][=O][C][=C][C][=C][C][=C][Ring1][=Branch1][C][Ring1][#Branch2][=C][Branch1][Ring1][C][#N][C][#N][=C][C][=Ring2][Ring1][Branch1][C][Ring2][Ring1][=N][Branch1][C][Mo][Mo][C][=Branch1][C][=O][C][=C][C][=C][C][=C][Ring1][=Branch1][Ring2][Ring2][P],{CCCCCCCCCCC(CCCCCC)N1C(=O)c2c(-c3cc4sc([$])c(CCCCCC)c4s3)sc(-c3cc4sc(-c5cc6c(-c7ccc(C(CC)CCCCCC)s7)c7sc([$])cc7c(-c7ccc(C(CC)CCCCCC)s7)c6s5)c(CCCCCC)c4s3)c2C1=O}.N#CC(C#N)=C1/C(=C/c2cc3c(s2)-c2cc4c(cc2C3([Mo])[Mo])-c2sc(/C=C3\C(=O)c5ccccc5C3=C(C#N)C#N)cc2C4([Mo])[Mo])C(=O)c2ccccc21
PMOT16,IDIC,-5.52,-3.66,1.86,-1.86,-5.705,-3.996875,-1.708125,1.6358333333333337,1:1,CF,DIO,25.0,MoOx,ZnO,10.04,10.04132825,0.925,16.13,67.3,COc1cc(-c2c3cc(-c4sc5cc(-c6sc(-c7cc8sc(C)c([Mo])c8s7)c7c6C(=O)N([Sc])C7=O)sc5c4[Mo])sc3c(-c3cc(OC)c([Cr])s3)c3cc(C)sc23)sc1[Cr].N#CC(C#N)=C1/C(=C/c2cc3c(s2)-c2cc4c(cc2C3([Mo])[Mo])-c2sc(/C=C3\C(=O)c5ccccc5C3=C(C#N)C#N)cc2C4([Mo])[Mo])C(=O)c2ccccc21,[C][O][C][C][=C][Branch2][Branch2][Branch1][C][=C][C][=C][Branch2][Branch1][O][C][S][C][C][=C][Branch2][Ring2][=Branch2][C][S][C][Branch2][Ring1][Ring1][C][=C][C][S][C][Branch1][C][C][=C][Branch1][C][Mo][C][=Ring1][#Branch1][S][Ring1][#Branch2][=C][C][=Ring1][#C][C][=Branch1][C][=O][N][Branch1][C][Sc][C][Ring1][#Branch1][=O][S][C][=Ring2][Ring1][#Branch2][C][=Ring2][Ring1][=N][Mo][S][C][Ring2][Ring2][Ring1][=C][Branch1][#C][C][=C][C][Branch1][Ring1][O][C][=C][Branch1][C][Cr][S][Ring1][Branch2][C][C][=C][Branch1][C][C][S][C][Ring2][Branch1][Ring1][=Ring1][=Branch1][S][C][=Ring2][Branch1][Branch2][Cr].[N][#C][C][Branch1][Ring1][C][#N][=C][/C][=Branch2][=Branch1][#Branch1][=C][/C][=C][C][=C][Branch1][Ring2][S][Ring1][Branch1][C][=C][C][=C][Branch1][N][C][=C][Ring1][=Branch1][C][Ring1][#Branch2][Branch1][C][Mo][Mo][C][S][C][Branch2][Ring1][=Branch2][/C][=C][\C][=Branch1][C][=O][C][=C][C][=C][C][=C][Ring1][=Branch1][C][Ring1][#Branch2][=C][Branch1][Ring1][C][#N][C][#N][=C][C][=Ring2][Ring1][Branch1][C][Ring2][Ring1][=N][Branch1][C][Mo][Mo][C][=Branch1][C][=O][C][=C][C][=C][C][=C][Ring1][=Branch1][Ring2][Ring2][P],{COc1cc(-c2c3cc(-c4sc5cc(-c6sc(-c7cc8sc([$])c([Mo])c8s7)c7c6C(=O)N([Sc])C7=O)sc5c4[Mo])sc3c(-c3cc(OC)c([Cr])s3)c3cc([$])sc23)sc1[Cr]}.N#CC(C#N)=C1/C(=C/c2cc3c(s2)-c2cc4c(cc2C3([Mo])[Mo])-c2sc(/C=C3\C(=O)c5ccccc5C3=C(C#N)C#N)cc2C4([Mo])[Mo])C(=O)c2ccccc21
PTZP,IDIC,-5.41,-3.4,2.01,-2.01,-5.705,-3.996875,-1.708125,1.6358333333333337,1:1.5,CB,DIO,25.0,PEDOT:PSS,PFN-Br,11.8,11.80863,0.9,17.9,73.3,Cc1cc2c(-c3ccc([Co])s3)c3sc(-c4sc(-c5nc6sc(-c7cc([Cr])c(C)s7)nc6s5)cc4[Cr])cc3c(-c3ccc([Co])s3)c2s1.N#CC(C#N)=C1/C(=C/c2cc3c(s2)-c2cc4c(cc2C3([Mo])[Mo])-c2sc(/C=C3\C(=O)c5ccccc5C3=C(C#N)C#N)cc2C4([Mo])[Mo])C(=O)c2ccccc21,[C][C][=C][C][=C][Branch1][O][C][=C][C][=C][Branch1][C][Co][S][Ring1][=Branch1][C][S][C][Branch2][Ring2][Branch2][C][S][C][Branch2][Ring1][N][C][=N][C][S][C][Branch1][=C][C][=C][C][Branch1][C][Cr][=C][Branch1][C][C][S][Ring1][#Branch1][=N][C][=Ring1][N][S][Ring1][#C][=C][C][=Ring2][Ring1][Ring2][Cr][=C][C][=Ring2][Ring1][#Branch2][C][Branch1][O][C][=C][C][=C][Branch1][C][Co][S][Ring1][=Branch1][=C][Ring2][Ring2][#Branch2][S][Ring2][Ring2][=N].[N][#C][C][Branch1][Ring1][C][#N][=C][/C][=Branch2][=Branch1][#Branch1][=C][/C][=C][C][=C][Branch1][Ring2][S][Ring1][Branch1][C][=C][C][=C][Branch1][N][C][=C][Ring1][=Branch1][C][Ring1][#Branch2][Branch1][C][Mo][Mo][C][S][C][Branch2][Ring1][=Branch2][/C][=C][\C][=Branch1][C][=O][C][=C][C][=C][C][=C][Ring1][=Branch1][C][Ring1][#Branch2][=C][Branch1][Ring1][C][#N][C][#N][=C][C][=Ring2][Ring1][Branch1][C][Ring2][Ring1][=N][Branch1][C][Mo][Mo][C][=Branch1][C][=O][C][=C][C][=C][C][=C][Ring1][=Branch1][Ring2][Ring2][P],{[$]c1cc2c(-c3ccc([Co])s3)c3sc(-c4sc(-c5nc6sc(-c7cc([Cr])c([$])s7)nc6s5)cc4[Cr])cc3c(-c3ccc([Co])s3)c2s1}.N#CC(C#N)=C1/C(=C/c2cc3c(s2)-c2cc4c(cc2C3([Mo])[Mo])-c2sc(/C=C3\C(=O)c5ccccc5C3=C(C#N)C#N)cc2C4([Mo])[Mo])C(=O)c2ccccc21
PffBT2T-TT,O-IDTBR,-5.42,-3.52,1.63,-1.9,-5.523333333333333,-3.793333333333333,-1.7300000000000004,1.62,1:1.5,"1,2,4-trimethylbenzene",_,90.0,V2O5,ZnO,10.4,10.361952,1.08,14.32,67.0,Cc1cc2sc(-c3sc(-c4c(F)c(F)c(-c5cc([Ce])c(C)s5)c5nsnc45)cc3[Ce])cc2s1.CCN1C(=O)/C(=C/c2ccc(-c3cc4c(s3)-c3cc5c(cc3C4([Ti])[Ti])-c3sc(-c4ccc(/C=C6\SC(=S)N(CC)C6=O)c6nsnc46)cc3C5([Ti])[Ti])c3nsnc23)SC1=S,[C][C][=C][C][S][C][Branch2][Ring2][S][C][S][C][Branch2][Ring2][Ring2][C][=C][Branch1][C][F][C][Branch1][C][F][=C][Branch1][=C][C][=C][C][Branch1][C][Ce][=C][Branch1][C][C][S][Ring1][#Branch1][C][=N][S][N][=C][Ring2][Ring1][C][Ring1][Branch1][=C][C][=Ring2][Ring1][#Branch1][Ce][=C][C][=Ring2][Ring1][=N][S][Ring2][Ring1][S].[C][C][N][C][=Branch1][C][=O][/C][=Branch2][#Branch1][S][=C][/C][=C][C][=C][Branch2][=Branch1][=C][C][=C][C][=C][Branch1][Ring2][S][Ring1][Branch1][C][=C][C][=C][Branch1][N][C][=C][Ring1][=Branch1][C][Ring1][#Branch2][Branch1][C][Ti][Ti][C][S][C][Branch2][Ring1][P][C][=C][C][=C][Branch1][P][/C][=C][\S][C][=Branch1][C][=S][N][Branch1][Ring1][C][C][C][Ring1][Branch2][=O][C][=N][S][N][=C][Ring2][Ring1][Ring1][Ring1][Branch1][=C][C][=Ring2][Ring1][Branch2][C][Ring2][Ring1][S][Branch1][C][Ti][Ti][C][=N][S][N][=C][Ring2][Branch1][C][Ring1][Branch1][S][C][Ring2][Branch1][=Branch2][=S],{[$]c1cc2sc(-c3sc(-c4c(F)c(F)c(-c5cc([Ce])c([$])s5)c5nsnc45)cc3[Ce])cc2s1}.CCN1C(=O)/C(=C/c2ccc(-c3cc4c(s3)-c3cc5c(cc3C4([Ti])[Ti])-c3sc(-c4ccc(/C=C6\SC(=S)N(CC)C6=O)c6nsnc46)cc3C5([Ti])[Ti])c3nsnc23)SC1=S
PTB7-Th,IDT-BT-R,-5.21,-3.542368421052632,1.5883333333333332,-1.667631578947368,-5.4125,-3.66,-1.7524999999999995,1.6849999999999998,1:1.5,DCB,_,150.0,PEDOT:PSS,Ca,8.2,8.198352,1.02,13.6,59.1,Cc1cc2c(-c3ccc([Cr])s3)c3sc(-c4sc(C)c5c(F)c(C(=O)O[Cr])sc45)cc3c(-c3ccc([Cr])s3)c2s1.CCN1C(=O)/C(=C/c2ccc(-c3cc4c(s3)-c3cc5c(cc3C4(c3ccc([Mo])cc3)c3ccc([Mo])cc3)-c3sc(-c4ccc(/C=C6\SC(=S)N(CC)C6=O)c6nsnc46)cc3C5(c3ccc([Mo])cc3)c3ccc([Mo])cc3)c3nsnc23)SC1=S,[C][C][=C][C][=C][Branch1][O][C][=C][C][=C][Branch1][C][Cr][S][Ring1][=Branch1][C][S][C][Branch2][Ring1][O][C][S][C][Branch1][C][C][=C][C][Branch1][C][F][=C][Branch1][#Branch1][C][=Branch1][C][=O][O][Cr][S][C][=Ring1][=C][Ring1][#Branch2][=C][C][=Ring2][Ring1][Ring1][C][Branch1][O][C][=C][C][=C][Branch1][C][Cr][S][Ring1][=Branch1][=C][Ring2][Ring2][Ring1][S][Ring2][Ring2][=Branch1].[C][C][N][C][=Branch1][C][=O][/C][=Branch2][#Branch2][=Branch2][=C][/C][=C][C][=C][Branch2][=Branch2][#Branch1][C][=C][C][=C][Branch1][Ring2][S][Ring1][Branch1][C][=C][C][=C][Branch2][Ring1][S][C][=C][Ring1][=Branch1][C][Ring1][#Branch2][Branch1][N][C][=C][C][=C][Branch1][C][Mo][C][=C][Ring1][#Branch1][C][=C][C][=C][Branch1][C][Mo][C][=C][Ring1][#Branch1][C][S][C][Branch2][Ring1][P][C][=C][C][=C][Branch1][P][/C][=C][\S][C][=Branch1][C][=S][N][Branch1][Ring1][C][C][C][Ring1][Branch2][=O][C][=N][S][N][=C][Ring2][Ring1][Ring1][Ring1][Branch1][=C][C][=Ring2][Ring1][Branch2][C][Ring2][Ring2][N][Branch1][N][C][=C][C][=C][Branch1][C][Mo][C][=C][Ring1][#Branch1][C][=C][C][=C][Branch1][C][Mo][C][=C][Ring1][#Branch1][C][=N][S][N][=C][Ring2][=Branch1][#Branch2][Ring1][Branch1][S][C][Ring2][=Branch1][P][=S],{[$]c1cc2c(-c3ccc([Cr])s3)c3sc(-c4sc([$])c5c(F)c(C(=O)O[Cr])sc45)cc3c(-c3ccc([Cr])s3)c2s1}.CCN1C(=O)/C(=C/c2ccc(-c3cc4c(s3)-c3cc5c(cc3C4(c3ccc([Mo])cc3)c3ccc([Mo])cc3)-c3sc(-c4ccc(/C=C6\SC(=S)N(CC)C6=O)c6nsnc46)cc3C5(c3ccc([Mo])cc3)c3ccc([Mo])cc3)c3nsnc23)SC1=S
PTB7-Th,IDT-BT-R-CN,-5.21,-3.542368421052632,1.5883333333333332,-1.667631578947368,-5.38,-3.67,-1.71,1.63,1:2,DCB,_,150.0,PEDOT:PSS,Ca,5.5,5.466912,0.88,12.4,50.1,Cc1cc2c(-c3ccc([Cr])s3)c3sc(-c4sc(C)c5c(F)c(C(=O)O[Cr])sc45)cc3c(-c3ccc([Cr])s3)c2s1.CCCCCCn1c(=C(C#N)C#N)s/c(=C/c2ccc(-c3cc4c(s3)-c3cc5c(cc3C4(c3ccc([Mo])cc3)c3ccc([Mo])cc3)-c3sc(-c4ccc(/C=c6/sc(=C(C#N)C#N)n(CCCCCC)c6=O)c6nsnc46)cc3C5(c3ccc([Mo])cc3)c3ccc([Mo])cc3)c3nsnc23)c1=O,[C][C][=C][C][=C][Branch1][O][C][=C][C][=C][Branch1][C][Cr][S][Ring1][=Branch1][C][S][C][Branch2][Ring1][O][C][S][C][Branch1][C][C][=C][C][Branch1][C][F][=C][Branch1][#Branch1][C][=Branch1][C][=O][O][Cr][S][C][=Ring1][=C][Ring1][#Branch2][=C][C][=Ring2][Ring1][Ring1][C][Branch1][O][C][=C][C][=C][Branch1][C][Cr][S][Ring1][=Branch1][=C][Ring2][Ring2][Ring1][S][Ring2][Ring2][=Branch1].[C][C][C][C][C][C][N][C][=Branch1][Branch2][=C][Branch1][Ring1][C][#N][C][#N][S][/C][=Branch2][O][Ring2][=C][/C][=C][C][=C][Branch2][#Branch2][C][C][=C][C][=C][Branch1][Ring2][S][Ring1][Branch1][C][=C][C][=C][Branch2][Ring1][S][C][=C][Ring1][=Branch1][C][Ring1][#Branch2][Branch1][N][C][=C][C][=C][Branch1][C][Mo][C][=C][Ring1][#Branch1][C][=C][C][=C][Branch1][C][Mo][C][=C][Ring1][#Branch1][C][S][C][Branch2][Ring2][N][C][=C][C][=C][Branch2][Ring1][O][/C][=C][/S][C][=Branch1][Branch2][=C][Branch1][Ring1][C][#N][C][#N][N][Branch1][#Branch1][C][C][C][C][C][C][C][Ring1][S][=O][C][=N][S][N][=C][Ring2][Ring1][O][Ring1][Branch1][=C][C][=Ring2][Ring1][S][C][Ring2][Branch1][Ring2][Branch1][N][C][=C][C][=C][Branch1][C][Mo][C][=C][Ring1][#Branch1][C][=C][C][=C][Branch1][C][Mo][C][=C][Ring1][#Branch1][C][=N][S][N][=C][Ring2][#Branch1][C][Ring1][Branch1][C][Ring2][#Branch1][=N][=O],{[$]c1cc2c(-c3ccc([Cr])s3)c3sc(-c4sc([$])c5c(F)c(C(=O)O[Cr])sc45)cc3c(-c3ccc([Cr])s3)c2s1}.CCCCCCn1c(=C(C#N)C#N)s/c(=C/c2ccc(-c3cc4c(s3)-c3cc5c(cc3C4(c3ccc([Mo])cc3)c3ccc([Mo])cc3)-c3sc(-c4ccc(/C=c6/sc(=C(C#N)C#N)n(CCCCCC)c6=O)c6nsnc46)cc3C5(c3ccc([Mo])cc3)c3ccc([Mo])cc3)c3nsnc23)c1=O
P3HT,I-IDTBTRh,-5.057777777777777,-2.989444444444445,1.9,-2.068333333333332,-5.42,-3.68,-1.7399999999999998,1.89,1:0.8,CF,_,140.0,PEDOT:PSS,Ca,5.38,5.379386,0.86,8.81,71.0,CCCCCCc1cc(-c2sc(-c3sc(-c4sc(C)cc4CCCCCC)cc3CCCCCC)cc2CCCCCC)sc1C.CCN1C(=O)/C(=C/c2ccc(-c3cc4c(s3)-c3cc5c(cc3C4(c3ccc(O[Ti])cc3)c3ccc(O[Ti])cc3)-c3sc(-c4ccc(/C=C6\SC(=S)N(CC)C6=O)c6nsnc46)cc3C5(c3ccc(O[Ti])cc3)c3ccc(O[Ti])cc3)c3nsnc23)SC1=S,[C][C][C][C][C][C][C][C][=C][Branch2][Ring2][P][C][S][C][Branch2][Ring1][S][C][S][C][Branch1][P][C][S][C][Branch1][C][C][=C][C][=Ring1][=Branch1][C][C][C][C][C][C][=C][C][=Ring1][P][C][C][C][C][C][C][=C][C][=Ring2][Ring1][N][C][C][C][C][C][C][S][C][=Ring2][Ring2][#Branch1][C].[C][C][N][C][=Branch1][C][=O][/C][=Branch2][#Branch2][=N][=C][/C][=C][C][=C][Branch2][=Branch2][O][C][=C][C][=C][Branch1][Ring2][S][Ring1][Branch1][C][=C][C][=C][Branch2][Ring2][C][C][=C][Ring1][=Branch1][C][Ring1][#Branch2][Branch1][=N][C][=C][C][=C][Branch1][Ring1][O][Ti][C][=C][Ring1][Branch2][C][=C][C][=C][Branch1][Ring1][O][Ti][C][=C][Ring1][Branch2][C][S][C][Branch2][Ring1][P][C][=C][C][=C][Branch1][P][/C][=C][\S][C][=Branch1][C][=S][N][Branch1][Ring1][C][C][C][Ring1][Branch2][=O][C][=N][S][N][=C][Ring2][Ring1][Ring1][Ring1][Branch1][=C][C][=Ring2][Ring1][Branch2][C][Ring2][Ring2][=C][Branch1][=N][C][=C][C][=C][Branch1][Ring1][O][Ti][C][=C][Ring1][Branch2][C][=C][C][=C][Branch1][Ring1][O][Ti][C][=C][Ring1][Branch2][C][=N][S][N][=C][Ring2][=Branch1][=C][Ring1][Branch1][S][C][Ring2][#Branch1][Branch1][=S],{CCCCCCc1cc(-c2sc(-c3sc(-c4sc([$])cc4CCCCCC)cc3CCCCCC)cc2CCCCCC)sc1[$]}.CCN1C(=O)/C(=C/c2ccc(-c3cc4c(s3)-c3cc5c(cc3C4(c3ccc(O[Ti])cc3)c3ccc(O[Ti])cc3)-c3sc(-c4ccc(/C=C6\SC(=S)N(CC)C6=O)c6nsnc46)cc3C5(c3ccc(O[Ti])cc3)c3ccc(O[Ti])cc3)c3nsnc23)SC1=S