Donor,Acceptor,HOMO_D_eV,LUMO_D_eV,HOMO_A_eV,LUMO_A_eV,D_A_ratio_m_m,solvent,solvent_additive,annealing_temperature,hole_contact_layer,electron_contact_layer,PCE_percent,calc_PCE_percent,Voc_V,Jsc_mA_cm_pow_neg2,FF_percent,DA_SMILES,DA_SELFIES,DA_BigSMILES
PBDT-Se-TAZ,ITIC,-5.23,-3.45,-5.574146341463415,-3.915,1.0,CF,DIO,25.0,MoOx,ZnO,10.07,10.07,0.81,18.63,66.7,CCCCCCCCC(CCCCCC)Cc1ccc(-c2c3cc(-c4ccc(-c5c(F)c(F)c(-c6ccc(C)s6)c6nn(CCCCCC)nc56)s4)sc3c(-c3ccc(CC(CCCCCC)CCCCCCCC)[se]3)c3cc(C)sc23)[se]1.CCCCCCc1ccc(C2(c3ccc(CCCCCC)cc3)c3cc4c(cc3-c3sc5cc(/C=C6\C(=O)c7ccccc7C6=C(C#N)C#N)sc5c32)C(c2ccc(CCCCCC)cc2)(c2ccc(CCCCCC)cc2)c2c-4sc3cc(/C=C4\C(=O)c5ccccc5C4=C(C#N)C#N)sc23)cc1,[C][C][C][C][C][C][C][C][C][Branch1][#Branch1][C][C][C][C][C][C][C][C][=C][C][=C][Branch2][Branch2][=C][C][=C][C][=C][Branch2][Branch1][Ring2][C][=C][C][=C][Branch2][Ring2][=Branch2][C][=C][Branch1][C][F][C][Branch1][C][F][=C][Branch1][O][C][=C][C][=C][Branch1][C][C][S][Ring1][=Branch1][C][=N][N][Branch1][#Branch1][C][C][C][C][C][C][N][=C][Ring2][Ring1][#Branch1][Ring1][O][S][Ring2][Ring1][N][S][C][Ring2][Ring1][P][=C][Branch2][Ring1][=C][C][=C][C][=C][Branch2][Ring1][Ring1][C][C][Branch1][#Branch1][C][C][C][C][C][C][C][C][C][C][C][C][C][C][Se][Ring2][Ring1][Branch1][C][C][=C][Branch1][C][C][S][C][Ring2][Branch1][=C][=Ring1][=Branch1][Se][Ring2][=Branch1][Ring1].[C][C][C][C][C][C][C][=C][C][=C][Branch2][O][N][C][Branch1][P][C][=C][C][=C][Branch1][#Branch1][C][C][C][C][C][C][C][=C][Ring1][N][C][=C][C][=C][Branch2][Ring2][P][C][=C][Ring1][=Branch1][C][S][C][C][=C][Branch2][Ring1][=Branch2][/C][=C][\C][=Branch1][C][=O][C][=C][C][=C][C][=C][Ring1][=Branch1][C][Ring1][#Branch2][=C][Branch1][Ring1][C][#N][C][#N][S][C][=Ring2][Ring1][Branch1][C][=Ring2][Ring1][Branch2][Ring2][Ring2][O][C][Branch1][P][C][=C][C][=C][Branch1][#Branch1][C][C][C][C][C][C][C][=C][Ring1][N][Branch1][P][C][=C][C][=C][Branch1][#Branch1][C][C][C][C][C][C][C][=C][Ring1][N][C][=C][Ring2][Branch1][#Branch1][S][C][C][=C][Branch2][Ring1][=Branch2][/C][=C][\C][=Branch1][C][=O][C][=C][C][=C][C][=C][Ring1][=Branch1][C][Ring1][#Branch2][=C][Branch1][Ring1][C][#N][C][#N][S][C][Ring2][Ring1][Branch2][=Ring2][Ring1][Branch1][C][=C][Ring2][Branch2][C],{CCCCCCCCC(CCCCCC)Cc1ccc(-c2c3cc(-c4ccc(-c5c(F)c(F)c(-c6ccc([$])s6)c6nn(CCCCCC)nc56)s4)sc3c(-c3ccc(CC(CCCCCC)CCCCCCCC)[se]3)c3cc([$])sc23)[se]1}.CCCCCCc1ccc(C2(c3ccc(CCCCCC)cc3)c3cc4c(cc3-c3sc5cc(/C=C6\C(=O)c7ccccc7C6=C(C#N)C#N)sc5c32)C(c2ccc(CCCCCC)cc2)(c2ccc(CCCCCC)cc2)c2c-4sc3cc(/C=C4\C(=O)c5ccccc5C4=C(C#N)C#N)sc23)cc1
PBDTS-Se-TAZ,ITIC,-5.29,-3.49,-5.574146341463415,-3.915,1.0,CF,DIO,25.0,MoOx,ZnO,12.31,12.31,0.84,19.51,75.1,CCCCCCCCC(CCCCCC)CSc1ccc(-c2c3cc(-c4ccc(-c5c(F)c(F)c(-c6ccc(C)s6)c6nn(CCCCCCCC)nc56)s4)sc3c(-c3ccc(SCC(CCCCCC)CCCCCCCC)[se]3)c3cc(C)sc23)[se]1.CCCCCCc1ccc(C2(c3ccc(CCCCCC)cc3)c3cc4c(cc3-c3sc5cc(/C=C6\C(=O)c7ccccc7C6=C(C#N)C#N)sc5c32)C(c2ccc(CCCCCC)cc2)(c2ccc(CCCCCC)cc2)c2c-4sc3cc(/C=C4\C(=O)c5ccccc5C4=C(C#N)C#N)sc23)cc1,[C][C][C][C][C][C][C][C][C][Branch1][#Branch1][C][C][C][C][C][C][C][S][C][=C][C][=C][Branch2][Branch2][P][C][=C][C][=C][Branch2][Branch1][=Branch1][C][=C][C][=C][Branch2][Ring2][O][C][=C][Branch1][C][F][C][Branch1][C][F][=C][Branch1][O][C][=C][C][=C][Branch1][C][C][S][Ring1][=Branch1][C][=N][N][Branch1][=Branch2][C][C][C][C][C][C][C][C][N][=C][Ring2][Ring1][=Branch2][Ring1][=N][S][Ring2][Ring1][=C][S][C][Ring2][Ring2][Ring1][=C][Branch2][Ring1][#C][C][=C][C][=C][Branch2][Ring1][Ring2][S][C][C][Branch1][#Branch1][C][C][C][C][C][C][C][C][C][C][C][C][C][C][Se][Ring2][Ring1][=Branch1][C][C][=C][Branch1][C][C][S][C][Ring2][Branch1][P][=Ring1][=Branch1][Se][Ring2][=Branch1][=Branch1].[C][C][C][C][C][C][C][=C][C][=C][Branch2][O][N][C][Branch1][P][C][=C][C][=C][Branch1][#Branch1][C][C][C][C][C][C][C][=C][Ring1][N][C][=C][C][=C][Branch2][Ring2][P][C][=C][Ring1][=Branch1][C][S][C][C][=C][Branch2][Ring1][=Branch2][/C][=C][\C][=Branch1][C][=O][C][=C][C][=C][C][=C][Ring1][=Branch1][C][Ring1][#Branch2][=C][Branch1][Ring1][C][#N][C][#N][S][C][=Ring2][Ring1][Branch1][C][=Ring2][Ring1][Branch2][Ring2][Ring2][O][C][Branch1][P][C][=C][C][=C][Branch1][#Branch1][C][C][C][C][C][C][C][=C][Ring1][N][Branch1][P][C][=C][C][=C][Branch1][#Branch1][C][C][C][C][C][C][C][=C][Ring1][N][C][=C][Ring2][Branch1][#Branch1][S][C][C][=C][Branch2][Ring1][=Branch2][/C][=C][\C][=Branch1][C][=O][C][=C][C][=C][C][=C][Ring1][=Branch1][C][Ring1][#Branch2][=C][Branch1][Ring1][C][#N][C][#N][S][C][Ring2][Ring1][Branch2][=Ring2][Ring1][Branch1][C][=C][Ring2][Branch2][C],{CCCCCCCCC(CCCCCC)CSc1ccc(-c2c3cc(-c4ccc(-c5c(F)c(F)c(-c6ccc([$])s6)c6nn(CCCCCCCC)nc56)s4)sc3c(-c3ccc(SCC(CCCCCC)CCCCCCCC)[se]3)c3cc([$])sc23)[se]1}.CCCCCCc1ccc(C2(c3ccc(CCCCCC)cc3)c3cc4c(cc3-c3sc5cc(/C=C6\C(=O)c7ccccc7C6=C(C#N)C#N)sc5c32)C(c2ccc(CCCCCC)cc2)(c2ccc(CCCCCC)cc2)c2c-4sc3cc(/C=C4\C(=O)c5ccccc5C4=C(C#N)C#N)sc23)cc1
PBDB-TF,IT-4F,-5.497142857142857,-3.6428571428571423,-5.66875,-4.060416666666667,1.0,CB,DIO,100.0,PEDOT:PSS,PFN-Br,13.7,13.65,0.87,20.38,77.0,CCCCC(CC)Cc1sc(-c2c3cc(-c4ccc(-c5sc(-c6ccc(C)s6)c6c5C(=O)c5c(CC(CC)CCCC)sc(CC(CC)CCCC)c5C6=O)s4)sc3c(-c3cc(F)c(CC(CC)CCCC)s3)c3cc(C)sc23)cc1F.CCCCCCc1ccc(C2(c3ccc(CCCCCC)cc3)c3cc4c(cc3-c3sc5cc(/C=C6\C(=O)c7cc(F)c(F)cc7C6=C(C#N)C#N)sc5c32)C(c2ccc(CCCCCC)cc2)(c2ccc(CCCCCC)cc2)c2c-4sc3cc(/C=C4\C(=O)c5cc(F)c(F)cc5C4=C(C#N)C#N)sc23)cc1,[C][C][C][C][C][Branch1][Ring1][C][C][C][C][S][C][Branch2][=Branch2][O][C][=C][C][=C][Branch2][=Branch1][Branch2][C][=C][C][=C][Branch2][Branch1][=N][C][S][C][Branch1][O][C][=C][C][=C][Branch1][C][C][S][Ring1][=Branch1][=C][C][=Ring1][O][C][=Branch1][C][=O][C][=C][Branch1][O][C][C][Branch1][Ring1][C][C][C][C][C][C][S][C][Branch1][O][C][C][Branch1][Ring1][C][C][C][C][C][C][=C][Ring2][Ring1][Branch1][C][Ring2][Ring1][#Branch2][=O][S][Ring2][Ring2][=Branch2][S][C][Ring2][Ring2][=C][=C][Branch2][Ring1][#Branch1][C][=C][C][Branch1][C][F][=C][Branch1][O][C][C][Branch1][Ring1][C][C][C][C][C][C][S][Ring1][=C][C][C][=C][Branch1][C][C][S][C][Ring2][=Branch1][Ring2][=Ring1][=Branch1][=C][C][=Ring2][=Branch1][=Branch2][F].[C][C][C][C][C][C][C][=C][C][=C][Branch2][N][Branch2][C][Branch1][P][C][=C][C][=C][Branch1][#Branch1][C][C][C][C][C][C][C][=C][Ring1][N][C][=C][C][=C][Branch2][Branch1][#Branch1][C][=C][Ring1][=Branch1][C][S][C][C][=C][Branch2][Ring1][#C][/C][=C][\C][=Branch1][C][=O][C][=C][C][Branch1][C][F][=C][Branch1][C][F][C][=C][Ring1][Branch2][C][Ring1][N][=C][Branch1][Ring1][C][#N][C][#N][S][C][=Ring2][Ring1][#Branch1][C][=Ring2][Ring1][#Branch2][Ring2][Ring2][=N][C][Branch1][P][C][=C][C][=C][Branch1][#Branch1][C][C][C][C][C][C][C][=C][Ring1][N][Branch1][P][C][=C][C][=C][Branch1][#Branch1][C][C][C][C][C][C][C][=C][Ring1][N][C][=C][Ring2][Branch1][=Branch2][S][C][C][=C][Branch2][Ring1][#C][/C][=C][\C][=Branch1][C][=O][C][=C][C][Branch1][C][F][=C][Branch1][C][F][C][=C][Ring1][Branch2][C][Ring1][N][=C][Branch1][Ring1][C][#N][C][#N][S][C][Ring2][Ring1][#Branch2][=Ring2][Ring1][#Branch1][C][=C][Ring2][Branch2][=Branch1],{CCCCC(CC)Cc1sc(-c2c3cc(-c4ccc(-c5sc(-c6ccc([$])s6)c6c5C(=O)c5c(CC(CC)CCCC)sc(CC(CC)CCCC)c5C6=O)s4)sc3c(-c3cc(F)c(CC(CC)CCCC)s3)c3cc([$])sc23)cc1F}.CCCCCCc1ccc(C2(c3ccc(CCCCCC)cc3)c3cc4c(cc3-c3sc5cc(/C=C6\C(=O)c7cc(F)c(F)cc7C6=C(C#N)C#N)sc5c32)C(c2ccc(CCCCCC)cc2)(c2ccc(CCCCCC)cc2)c2c-4sc3cc(/C=C4\C(=O)c5cc(F)c(F)cc5C4=C(C#N)C#N)sc23)cc1
PBZ-m-CF3,ITIC,-5.49,-3.22,-5.574146341463415,-3.915,1.0,Toluene,_,160.0,MoOx,ZnO,10.4,10.41,0.94,18.4,60.2,CCCCCCCCC(CCCCCC)Cn1nc2c(-c3ccc(C)s3)c(F)c(F)c(-c3ccc(-c4cc5c(-c6ccc(OCC(CC)CCCC)c(C(F)(F)F)c6)c6sc(C)cc6c(-c6ccc(OCC(CC)CCCC)c(C(F)(F)F)c6)c5s4)s3)c2n1.CCCCCCc1ccc(C2(c3ccc(CCCCCC)cc3)c3cc4c(cc3-c3sc5cc(/C=C6\C(=O)c7ccccc7C6=C(C#N)C#N)sc5c32)C(c2ccc(CCCCCC)cc2)(c2ccc(CCCCCC)cc2)c2c-4sc3cc(/C=C4\C(=O)c5ccccc5C4=C(C#N)C#N)sc23)cc1,[C][C][C][C][C][C][C][C][C][Branch1][#Branch1][C][C][C][C][C][C][C][N][N][=C][C][Branch1][O][C][=C][C][=C][Branch1][C][C][S][Ring1][=Branch1][=C][Branch1][C][F][C][Branch1][C][F][=C][Branch2][Branch2][=Branch2][C][=C][C][=C][Branch2][#Branch1][=C][C][=C][C][=C][Branch2][Ring1][P][C][=C][C][=C][Branch1][N][O][C][C][Branch1][Ring1][C][C][C][C][C][C][C][Branch1][=Branch2][C][Branch1][C][F][Branch1][C][F][F][=C][Ring2][Ring1][Ring1][C][S][C][Branch1][C][C][=C][C][=Ring1][=Branch1][C][Branch2][Ring1][P][C][=C][C][=C][Branch1][N][O][C][C][Branch1][Ring1][C][C][C][C][C][C][C][Branch1][=Branch2][C][Branch1][C][F][Branch1][C][F][F][=C][Ring2][Ring1][Ring1][=C][Ring2][Ring2][S][S][Ring2][Branch1][Ring1][S][Ring2][Branch1][Branch2][C][Ring2][=Branch1][=Branch1][=N][Ring2][=Branch1][=Branch2].[C][C][C][C][C][C][C][=C][C][=C][Branch2][O][N][C][Branch1][P][C][=C][C][=C][Branch1][#Branch1][C][C][C][C][C][C][C][=C][Ring1][N][C][=C][C][=C][Branch2][Ring2][P][C][=C][Ring1][=Branch1][C][S][C][C][=C][Branch2][Ring1][=Branch2][/C][=C][\C][=Branch1][C][=O][C][=C][C][=C][C][=C][Ring1][=Branch1][C][Ring1][#Branch2][=C][Branch1][Ring1][C][#N][C][#N][S][C][=Ring2][Ring1][Branch1][C][=Ring2][Ring1][Branch2][Ring2][Ring2][O][C][Branch1][P][C][=C][C][=C][Branch1][#Branch1][C][C][C][C][C][C][C][=C][Ring1][N][Branch1][P][C][=C][C][=C][Branch1][#Branch1][C][C][C][C][C][C][C][=C][Ring1][N][C][=C][Ring2][Branch1][#Branch1][S][C][C][=C][Branch2][Ring1][=Branch2][/C][=C][\C][=Branch1][C][=O][C][=C][C][=C][C][=C][Ring1][=Branch1][C][Ring1][#Branch2][=C][Branch1][Ring1][C][#N][C][#N][S][C][Ring2][Ring1][Branch2][=Ring2][Ring1][Branch1][C][=C][Ring2][Branch2][C],{CCCCCCCCC(CCCCCC)Cn1nc2c(-c3ccc([$])s3)c(F)c(F)c(-c3ccc(-c4cc5c(-c6ccc(OCC(CC)CCCC)c(C(F)(F)F)c6)c6sc([$])cc6c(-c6ccc(OCC(CC)CCCC)c(C(F)(F)F)c6)c5s4)s3)c2n1}.CCCCCCc1ccc(C2(c3ccc(CCCCCC)cc3)c3cc4c(cc3-c3sc5cc(/C=C6\C(=O)c7ccccc7C6=C(C#N)C#N)sc5c32)C(c2ccc(CCCCCC)cc2)(c2ccc(CCCCCC)cc2)c2c-4sc3cc(/C=C4\C(=O)c5ccccc5C4=C(C#N)C#N)sc23)cc1
PBDB-TF,HF-PCIC,-5.497142857142857,-3.6428571428571423,-5.53,-3.83,0.833,CB,CN,110.0,MoOx,ZnO,10.97,10.67,0.92,16.01,72.42,CCCCC(CC)Cc1sc(-c2c3cc(-c4ccc(-c5sc(-c6ccc(C)s6)c6c5C(=O)c5c(CC(CC)CCCC)sc(CC(CC)CCCC)c5C6=O)s4)sc3c(-c3cc(F)c(CC(CC)CCCC)s3)c3cc(C)sc23)cc1F.CCCCC(CC)CC1(CC(CC)CCCC)c2cc(/C=C3\C(=O)c4cc(F)c(F)cc4C3=C(C#N)C#N)sc2-c2sc(-c3cc(F)c(-c4cc5c(s4)-c4sc(/C=C6\C(=O)c7cc(F)c(F)cc7C6=C(C#N)C#N)cc4C5(CC(CC)CCCC)CC(CC)CCCC)cc3F)cc21,[C][C][C][C][C][Branch1][Ring1][C][C][C][C][S][C][Branch2][=Branch2][O][C][=C][C][=C][Branch2][=Branch1][Branch2][C][=C][C][=C][Branch2][Branch1][=N][C][S][C][Branch1][O][C][=C][C][=C][Branch1][C][C][S][Ring1][=Branch1][=C][C][=Ring1][O][C][=Branch1][C][=O][C][=C][Branch1][O][C][C][Branch1][Ring1][C][C][C][C][C][C][S][C][Branch1][O][C][C][Branch1][Ring1][C][C][C][C][C][C][=C][Ring2][Ring1][Branch1][C][Ring2][Ring1][#Branch2][=O][S][Ring2][Ring2][=Branch2][S][C][Ring2][Ring2][=C][=C][Branch2][Ring1][#Branch1][C][=C][C][Branch1][C][F][=C][Branch1][O][C][C][Branch1][Ring1][C][C][C][C][C][C][S][Ring1][=C][C][C][=C][Branch1][C][C][S][C][Ring2][=Branch1][Ring2][=Ring1][=Branch1][=C][C][=Ring2][=Branch1][=Branch2][F].[C][C][C][C][C][Branch1][Ring1][C][C][C][C][Branch1][O][C][C][Branch1][Ring1][C][C][C][C][C][C][C][C][=C][Branch2][Ring1][#C][/C][=C][\C][=Branch1][C][=O][C][=C][C][Branch1][C][F][=C][Branch1][C][F][C][=C][Ring1][Branch2][C][Ring1][N][=C][Branch1][Ring1][C][#N][C][#N][S][C][=Ring2][Ring1][#Branch1][C][S][C][Branch2][#Branch1][=N][C][=C][C][Branch1][C][F][=C][Branch2][=Branch1][=N][C][=C][C][=C][Branch1][Ring2][S][Ring1][Branch1][C][S][C][Branch2][Ring1][#C][/C][=C][\C][=Branch1][C][=O][C][=C][C][Branch1][C][F][=C][Branch1][C][F][C][=C][Ring1][Branch2][C][Ring1][N][=C][Branch1][Ring1][C][#N][C][#N][=C][C][=Ring2][Ring1][#Branch1][C][Ring2][Ring1][O][Branch1][O][C][C][Branch1][Ring1][C][C][C][C][C][C][C][C][Branch1][Ring1][C][C][C][C][C][C][C][=C][Ring2][Branch1][Ring2][F][=C][C][=Ring2][Branch1][#Branch2][Ring2][#Branch1][#Branch2],{CCCCC(CC)Cc1sc(-c2c3cc(-c4ccc(-c5sc(-c6ccc([$])s6)c6c5C(=O)c5c(CC(CC)CCCC)sc(CC(CC)CCCC)c5C6=O)s4)sc3c(-c3cc(F)c(CC(CC)CCCC)s3)c3cc([$])sc23)cc1F}.CCCCC(CC)CC1(CC(CC)CCCC)c2cc(/C=C3\C(=O)c4cc(F)c(F)cc4C3=C(C#N)C#N)sc2-c2sc(-c3cc(F)c(-c4cc5c(s4)-c4sc(/C=C6\C(=O)c7cc(F)c(F)cc7C6=C(C#N)C#N)cc4C5(CC(CC)CCCC)CC(CC)CCCC)cc3F)cc21
PBDB-TF,HFO-PCIC,-5.497142857142857,-3.6428571428571423,-5.5,-3.81,0.833,CB,CN,110.0,MoOx,ZnO,8.36,8.33,0.93,12.62,70.99,CCCCC(CC)Cc1sc(-c2c3cc(-c4ccc(-c5sc(-c6ccc(C)s6)c6c5C(=O)c5c(CC(CC)CCCC)sc(CC(CC)CCCC)c5C6=O)s4)sc3c(-c3cc(F)c(CC(CC)CCCC)s3)c3cc(C)sc23)cc1F.CCCCC(CC)CC1(CC(CC)CCCC)c2cc(/C=C3\C(=O)c4cc(F)c(F)cc4C3=C(C#N)C#N)sc2-c2sc(-c3c(F)c(OC)c(-c4cc5c(s4)-c4sc(/C=C6\C(=O)c7cc(F)c(F)cc7C6=C(C#N)C#N)cc4C5(CC(CC)CCCC)CC(CC)CCCC)c(F)c3OC)cc21,[C][C][C][C][C][Branch1][Ring1][C][C][C][C][S][C][Branch2][=Branch2][O][C][=C][C][=C][Branch2][=Branch1][Branch2][C][=C][C][=C][Branch2][Branch1][=N][C][S][C][Branch1][O][C][=C][C][=C][Branch1][C][C][S][Ring1][=Branch1][=C][C][=Ring1][O][C][=Branch1][C][=O][C][=C][Branch1][O][C][C][Branch1][Ring1][C][C][C][C][C][C][S][C][Branch1][O][C][C][Branch1][Ring1][C][C][C][C][C][C][=C][Ring2][Ring1][Branch1][C][Ring2][Ring1][#Branch2][=O][S][Ring2][Ring2][=Branch2][S][C][Ring2][Ring2][=C][=C][Branch2][Ring1][#Branch1][C][=C][C][Branch1][C][F][=C][Branch1][O][C][C][Branch1][Ring1][C][C][C][C][C][C][S][Ring1][=C][C][C][=C][Branch1][C][C][S][C][Ring2][=Branch1][Ring2][=Ring1][=Branch1][=C][C][=Ring2][=Branch1][=Branch2][F].[C][C][C][C][C][Branch1][Ring1][C][C][C][C][Branch1][O][C][C][Branch1][Ring1][C][C][C][C][C][C][C][C][=C][Branch2][Ring1][#C][/C][=C][\C][=Branch1][C][=O][C][=C][C][Branch1][C][F][=C][Branch1][C][F][C][=C][Ring1][Branch2][C][Ring1][N][=C][Branch1][Ring1][C][#N][C][#N][S][C][=Ring2][Ring1][#Branch1][C][S][C][Branch2][Branch2][Branch1][C][=C][Branch1][C][F][C][Branch1][Ring1][O][C][=C][Branch2][=Branch1][=N][C][=C][C][=C][Branch1][Ring2][S][Ring1][Branch1][C][S][C][Branch2][Ring1][#C][/C][=C][\C][=Branch1][C][=O][C][=C][C][Branch1][C][F][=C][Branch1][C][F][C][=C][Ring1][Branch2][C][Ring1][N][=C][Branch1][Ring1][C][#N][C][#N][=C][C][=Ring2][Ring1][#Branch1][C][Ring2][Ring1][O][Branch1][O][C][C][Branch1][Ring1][C][C][C][C][C][C][C][C][Branch1][Ring1][C][C][C][C][C][C][C][Branch1][C][F][=C][Ring2][Branch1][#Branch1][O][C][=C][C][=Ring2][Branch1][=C][Ring2][#Branch1][=C],{CCCCC(CC)Cc1sc(-c2c3cc(-c4ccc(-c5sc(-c6ccc([$])s6)c6c5C(=O)c5c(CC(CC)CCCC)sc(CC(CC)CCCC)c5C6=O)s4)sc3c(-c3cc(F)c(CC(CC)CCCC)s3)c3cc([$])sc23)cc1F}.CCCCC(CC)CC1(CC(CC)CCCC)c2cc(/C=C3\C(=O)c4cc(F)c(F)cc4C3=C(C#N)C#N)sc2-c2sc(-c3c(F)c(OC)c(-c4cc5c(s4)-c4sc(/C=C6\C(=O)c7cc(F)c(F)cc7C6=C(C#N)C#N)cc4C5(CC(CC)CCCC)CC(CC)CCCC)c(F)c3OC)cc21
PBDB-T,IF-TN,-5.297714285714285,-3.4170000000000003,-5.8,-3.93,1.0,CB,CN,80.0,PEDOT:PSS,PNDIT-F3N-Br,2.89,2.89,1.006,7.02,40.95,CCCCC(CC)Cc1ccc(-c2c3cc(-c4ccc(-c5sc(-c6ccc(C)s6)c6c5C(=O)c5c(CC(CC)CCCC)sc(CC(CC)CCCC)c5C6=O)s4)sc3c(-c3ccc(CC(CC)CCCC)s3)c3cc(C)sc23)s1.CCCCCCC1(CCCCCC)c2cc(-c3sc(/C=C4\C(=O)c5cc6ccccc6cc5C4=C(C#N)C#N)cc3CC(CC)CCCC)ccc2-c2cc3c(cc21)-c1ccc(-c2sc(/C=C4\C(=O)c5cc6ccccc6cc5C4=C(C#N)C#N)cc2CC(CC)CCCC)cc1C3(CCCCCC)CCCCCC,[C][C][C][C][C][Branch1][Ring1][C][C][C][C][=C][C][=C][Branch2][=Branch2][Branch2][C][=C][C][=C][Branch2][=Branch1][Branch2][C][=C][C][=C][Branch2][Branch1][=N][C][S][C][Branch1][O][C][=C][C][=C][Branch1][C][C][S][Ring1][=Branch1][=C][C][=Ring1][O][C][=Branch1][C][=O][C][=C][Branch1][O][C][C][Branch1][Ring1][C][C][C][C][C][C][S][C][Branch1][O][C][C][Branch1][Ring1][C][C][C][C][C][C][=C][Ring2][Ring1][Branch1][C][Ring2][Ring1][#Branch2][=O][S][Ring2][Ring2][=Branch2][S][C][Ring2][Ring2][=C][=C][Branch2][Ring1][Ring2][C][=C][C][=C][Branch1][O][C][C][Branch1][Ring1][C][C][C][C][C][C][S][Ring1][=N][C][C][=C][Branch1][C][C][S][C][Ring2][=Branch1][Ring1][=Ring1][=Branch1][S][Ring2][=Branch1][Branch2].[C][C][C][C][C][C][C][Branch1][#Branch1][C][C][C][C][C][C][C][=C][C][Branch2][Branch1][Ring2][C][S][C][Branch2][Ring1][#C][/C][=C][\C][=Branch1][C][=O][C][=C][C][=C][C][=C][C][=C][Ring1][=Branch1][C][=C][Ring1][#Branch2][C][Ring1][=C][=C][Branch1][Ring1][C][#N][C][#N][=C][C][=Ring2][Ring1][=Branch2][C][C][Branch1][Ring1][C][C][C][C][C][C][=C][C][=C][Ring2][Ring2][#Branch1][C][=C][C][=C][Branch1][Branch2][C][=C][Ring1][=Branch1][Ring2][Branch1][Ring2][C][=C][C][=C][Branch2][Branch1][Ring2][C][S][C][Branch2][Ring1][#C][/C][=C][\C][=Branch1][C][=O][C][=C][C][=C][C][=C][C][=C][Ring1][=Branch1][C][=C][Ring1][#Branch2][C][Ring1][=C][=C][Branch1][Ring1][C][#N][C][#N][=C][C][=Ring2][Ring1][=Branch2][C][C][Branch1][Ring1][C][C][C][C][C][C][C][=C][Ring2][Ring2][#Branch1][C][Ring2][Ring2][N][Branch1][#Branch1][C][C][C][C][C][C][C][C][C][C][C][C],{CCCCC(CC)Cc1ccc(-c2c3cc(-c4ccc(-c5sc(-c6ccc([$])s6)c6c5C(=O)c5c(CC(CC)CCCC)sc(CC(CC)CCCC)c5C6=O)s4)sc3c(-c3ccc(CC(CC)CCCC)s3)c3cc([$])sc23)s1}.CCCCCCC1(CCCCCC)c2cc(-c3sc(/C=C4\C(=O)c5cc6ccccc6cc5C4=C(C#N)C#N)cc3CC(CC)CCCC)ccc2-c2cc3c(cc21)-c1ccc(-c2sc(/C=C4\C(=O)c5cc6ccccc6cc5C4=C(C#N)C#N)cc2CC(CC)CCCC)cc1C3(CCCCCC)CCCCCC
PBDB-T,IT-M,-5.297714285714285,-3.4170000000000003,-5.513571428571429,-3.808,1.0,CB,DIO,25.0,PEDOT:PSS,PDINO,10.31,10.36,0.93,16.69,66.77,CCCCC(CC)Cc1ccc(-c2c3cc(-c4ccc(-c5sc(-c6ccc(C)s6)c6c5C(=O)c5c(CC(CC)CCCC)sc(CC(CC)CCCC)c5C6=O)s4)sc3c(-c3ccc(CC(CC)CCCC)s3)c3cc(C)sc23)s1.CCCCCCc1ccc(C2(c3ccc(CCCCCC)cc3)c3cc4c(cc3-c3sc5cc(/C=C6\C(=O)c7ccc(C)cc7C6=C(C#N)C#N)sc5c32)C(c2ccc(CCCCCC)cc2)(c2ccc(CCCCCC)cc2)c2c-4sc3cc(/C=C4\C(=O)c5ccc(C)cc5C4=C(C#N)C#N)sc23)cc1,[C][C][C][C][C][Branch1][Ring1][C][C][C][C][=C][C][=C][Branch2][=Branch2][Branch2][C][=C][C][=C][Branch2][=Branch1][Branch2][C][=C][C][=C][Branch2][Branch1][=N][C][S][C][Branch1][O][C][=C][C][=C][Branch1][C][C][S][Ring1][=Branch1][=C][C][=Ring1][O][C][=Branch1][C][=O][C][=C][Branch1][O][C][C][Branch1][Ring1][C][C][C][C][C][C][S][C][Branch1][O][C][C][Branch1][Ring1][C][C][C][C][C][C][=C][Ring2][Ring1][Branch1][C][Ring2][Ring1][#Branch2][=O][S][Ring2][Ring2][=Branch2][S][C][Ring2][Ring2][=C][=C][Branch2][Ring1][Ring2][C][=C][C][=C][Branch1][O][C][C][Branch1][Ring1][C][C][C][C][C][C][S][Ring1][=N][C][C][=C][Branch1][C][C][S][C][Ring2][=Branch1][Ring1][=Ring1][=Branch1][S][Ring2][=Branch1][Branch2].[C][C][C][C][C][C][C][=C][C][=C][Branch2][N][C][C][Branch1][P][C][=C][C][=C][Branch1][#Branch1][C][C][C][C][C][C][C][=C][Ring1][N][C][=C][C][=C][Branch2][Branch1][Ring2][C][=C][Ring1][=Branch1][C][S][C][C][=C][Branch2][Ring1][N][/C][=C][\C][=Branch1][C][=O][C][=C][C][=C][Branch1][C][C][C][=C][Ring1][#Branch1][C][Ring1][O][=C][Branch1][Ring1][C][#N][C][#N][S][C][=Ring2][Ring1][=Branch1][C][=Ring2][Ring1][=Branch2][Ring2][Ring2][N][C][Branch1][P][C][=C][C][=C][Branch1][#Branch1][C][C][C][C][C][C][C][=C][Ring1][N][Branch1][P][C][=C][C][=C][Branch1][#Branch1][C][C][C][C][C][C][C][=C][Ring1][N][C][=C][Ring2][Branch1][Branch2][S][C][C][=C][Branch2][Ring1][N][/C][=C][\C][=Branch1][C][=O][C][=C][C][=C][Branch1][C][C][C][=C][Ring1][#Branch1][C][Ring1][O][=C][Branch1][Ring1][C][#N][C][#N][S][C][Ring2][Ring1][=Branch2][=Ring2][Ring1][=Branch1][C][=C][Ring2][Branch2][Ring2],{CCCCC(CC)Cc1ccc(-c2c3cc(-c4ccc(-c5sc(-c6ccc([$])s6)c6c5C(=O)c5c(CC(CC)CCCC)sc(CC(CC)CCCC)c5C6=O)s4)sc3c(-c3ccc(CC(CC)CCCC)s3)c3cc([$])sc23)s1}.CCCCCCc1ccc(C2(c3ccc(CCCCCC)cc3)c3cc4c(cc3-c3sc5cc(/C=C6\C(=O)c7ccc(C)cc7C6=C(C#N)C#N)sc5c32)C(c2ccc(CCCCCC)cc2)(c2ccc(CCCCCC)cc2)c2c-4sc3cc(/C=C4\C(=O)c5ccc(C)cc5C4=C(C#N)C#N)sc23)cc1