Donor,Acceptor,HOMO_D_eV,LUMO_D_eV,Eg_D_eV,Ehl_D_eV,HOMO_A_eV,LUMO_A_eV,Ehl_A_eV,Eg_A_eV,D_A_ratio_m_m,solvent,solvent_additive,annealing_temperature,hole_contact_layer,electron_contact_layer,PCE_percent,calc_PCE_percent,Voc_V,Jsc_mA_cm_pow_neg2,FF_percent,DA_SMILES,DA_SELFIES,DA_BigSMILES
PBDB-T,SiIDT-IC,-5.297777777777778,-3.4170000000000003,1.7681818181818183,-1.8807777777777777,-5.47,-3.78,-1.69,1.69,1:1,CB,_,110.0,MoOx,ZnO/PFN-Br,8.16,8.16064656,0.92,13.53,65.56,Cc1ccc(-c2sc(-c3ccc(-c4cc5c(-c6ccc([Cr])s6)c6sc(C)cc6c(-c6ccc([Cr])s6)c5s4)s3)c3c2C(=O)c2c([Cr])sc([Cr])c2C3=O)s1.N#CC(C#N)=C1/C(=C/c2cc3c(s2)-c2cc4c(cc2[Si]3(c2ccc([Mo])cc2)c2ccc([Mo])cc2)-c2sc(/C=C3\C(=O)c5ccccc5C3=C(C#N)C#N)cc2[Si]4(c2ccc([Mo])cc2)c2ccc([Mo])cc2)C(=O)c2ccccc21,[C][C][=C][C][=C][Branch2][#Branch1][O][C][S][C][Branch2][Branch1][O][C][=C][C][=C][Branch2][Ring2][S][C][=C][C][=C][Branch1][O][C][=C][C][=C][Branch1][C][Cr][S][Ring1][=Branch1][C][S][C][Branch1][C][C][=C][C][=Ring1][=Branch1][C][Branch1][O][C][=C][C][=C][Branch1][C][Cr][S][Ring1][=Branch1][=C][Ring2][Ring1][=Branch1][S][Ring2][Ring1][=Branch2][S][Ring2][Ring1][=C][=C][C][=Ring2][Ring2][Ring1][C][=Branch1][C][=O][C][=C][Branch1][C][Cr][S][C][Branch1][C][Cr][=C][Ring1][#Branch1][C][Ring1][N][=O][S][Ring2][Branch1][Ring1].[N][#C][C][Branch1][Ring1][C][#N][=C][/C][=Branch2][Branch2][S][=C][/C][=C][C][=C][Branch1][Ring2][S][Ring1][Branch1][C][=C][C][=C][Branch2][Ring1][S][C][=C][Ring1][=Branch1][Si][Ring1][#Branch2][Branch1][N][C][=C][C][=C][Branch1][C][Mo][C][=C][Ring1][#Branch1][C][=C][C][=C][Branch1][C][Mo][C][=C][Ring1][#Branch1][C][S][C][Branch2][Ring1][=Branch2][/C][=C][\C][=Branch1][C][=O][C][=C][C][=C][C][=C][Ring1][=Branch1][C][Ring1][#Branch2][=C][Branch1][Ring1][C][#N][C][#N][=C][C][=Ring2][Ring1][Branch1][Si][Ring2][Ring2][=Branch2][Branch1][N][C][=C][C][=C][Branch1][C][Mo][C][=C][Ring1][#Branch1][C][=C][C][=C][Branch1][C][Mo][C][=C][Ring1][#Branch1][C][=Branch1][C][=O][C][=C][C][=C][C][=C][Ring1][=Branch1][Ring2][=Branch1][=Branch2],{[$]c1ccc(-c2sc(-c3ccc(-c4cc5c(-c6ccc([Cr])s6)c6sc([$])cc6c(-c6ccc([Cr])s6)c5s4)s3)c3c2C(=O)c2c([Cr])sc([Cr])c2C3=O)s1}.N#CC(C#N)=C1/C(=C/c2cc3c(s2)-c2cc4c(cc2[Si]3(c2ccc([Mo])cc2)c2ccc([Mo])cc2)-c2sc(/C=C3\C(=O)c5ccccc5C3=C(C#N)C#N)cc2[Si]4(c2ccc([Mo])cc2)c2ccc([Mo])cc2)C(=O)c2ccccc21
PBDB-T,IDIC,-5.297777777777778,-3.4170000000000003,1.7681818181818183,-1.8807777777777777,-5.705,-3.996875,-1.708125,1.6358333333333337,1:1,CB,_,110.0,MoOx,ZnO/PFN-Br,8.83,8.83595304,0.81,16.69,65.36,Cc1ccc(-c2sc(-c3ccc(-c4cc5c(-c6ccc([Cr])s6)c6sc(C)cc6c(-c6ccc([Cr])s6)c5s4)s3)c3c2C(=O)c2c([Cr])sc([Cr])c2C3=O)s1.N#CC(C#N)=C1/C(=C/c2cc3c(s2)-c2cc4c(cc2C3([Mo])[Mo])-c2sc(/C=C3\C(=O)c5ccccc5C3=C(C#N)C#N)cc2C4([Mo])[Mo])C(=O)c2ccccc21,[C][C][=C][C][=C][Branch2][#Branch1][O][C][S][C][Branch2][Branch1][O][C][=C][C][=C][Branch2][Ring2][S][C][=C][C][=C][Branch1][O][C][=C][C][=C][Branch1][C][Cr][S][Ring1][=Branch1][C][S][C][Branch1][C][C][=C][C][=Ring1][=Branch1][C][Branch1][O][C][=C][C][=C][Branch1][C][Cr][S][Ring1][=Branch1][=C][Ring2][Ring1][=Branch1][S][Ring2][Ring1][=Branch2][S][Ring2][Ring1][=C][=C][C][=Ring2][Ring2][Ring1][C][=Branch1][C][=O][C][=C][Branch1][C][Cr][S][C][Branch1][C][Cr][=C][Ring1][#Branch1][C][Ring1][N][=O][S][Ring2][Branch1][Ring1].[N][#C][C][Branch1][Ring1][C][#N][=C][/C][=Branch2][=Branch1][#Branch1][=C][/C][=C][C][=C][Branch1][Ring2][S][Ring1][Branch1][C][=C][C][=C][Branch1][N][C][=C][Ring1][=Branch1][C][Ring1][#Branch2][Branch1][C][Mo][Mo][C][S][C][Branch2][Ring1][=Branch2][/C][=C][\C][=Branch1][C][=O][C][=C][C][=C][C][=C][Ring1][=Branch1][C][Ring1][#Branch2][=C][Branch1][Ring1][C][#N][C][#N][=C][C][=Ring2][Ring1][Branch1][C][Ring2][Ring1][=N][Branch1][C][Mo][Mo][C][=Branch1][C][=O][C][=C][C][=C][C][=C][Ring1][=Branch1][Ring2][Ring2][P],{[$]c1ccc(-c2sc(-c3ccc(-c4cc5c(-c6ccc([Cr])s6)c6sc([$])cc6c(-c6ccc([Cr])s6)c5s4)s3)c3c2C(=O)c2c([Cr])sc([Cr])c2C3=O)s1}.N#CC(C#N)=C1/C(=C/c2cc3c(s2)-c2cc4c(cc2C3([Mo])[Mo])-c2sc(/C=C3\C(=O)c5ccccc5C3=C(C#N)C#N)cc2C4([Mo])[Mo])C(=O)c2ccccc21
PBDB-T,IDTBOR,-5.297777777777778,-3.4170000000000003,1.7681818181818183,-1.8807777777777777,-5.49,-3.93,-1.56,1.56,1:2,CB,_,130.0,MoOx,ZnO/PFN-Br,7.74,7.77527674,0.89,15.98,54.67,Cc1ccc(-c2sc(-c3ccc(-c4cc5c(-c6ccc([Cr])s6)c6sc(C)cc6c(-c6ccc([Cr])s6)c5s4)s3)c3c2C(=O)c2c([Cr])sc([Cr])c2C3=O)s1.CCN1C(=O)/C(=C/c2ccc(-c3cc4c(s3)-c3cc5c(cc3C4([Mo])[Mo])-c3sc(-c4ccc(/C=C6\SC(=S)N(CC)C6=O)c6nonc46)cc3C5([Mo])[Mo])c3nonc23)SC1=S,[C][C][=C][C][=C][Branch2][#Branch1][O][C][S][C][Branch2][Branch1][O][C][=C][C][=C][Branch2][Ring2][S][C][=C][C][=C][Branch1][O][C][=C][C][=C][Branch1][C][Cr][S][Ring1][=Branch1][C][S][C][Branch1][C][C][=C][C][=Ring1][=Branch1][C][Branch1][O][C][=C][C][=C][Branch1][C][Cr][S][Ring1][=Branch1][=C][Ring2][Ring1][=Branch1][S][Ring2][Ring1][=Branch2][S][Ring2][Ring1][=C][=C][C][=Ring2][Ring2][Ring1][C][=Branch1][C][=O][C][=C][Branch1][C][Cr][S][C][Branch1][C][Cr][=C][Ring1][#Branch1][C][Ring1][N][=O][S][Ring2][Branch1][Ring1].[C][C][N][C][=Branch1][C][=O][/C][=Branch2][#Branch1][S][=C][/C][=C][C][=C][Branch2][=Branch1][=C][C][=C][C][=C][Branch1][Ring2][S][Ring1][Branch1][C][=C][C][=C][Branch1][N][C][=C][Ring1][=Branch1][C][Ring1][#Branch2][Branch1][C][Mo][Mo][C][S][C][Branch2][Ring1][P][C][=C][C][=C][Branch1][P][/C][=C][\S][C][=Branch1][C][=S][N][Branch1][Ring1][C][C][C][Ring1][Branch2][=O][C][=N][O][N][=C][Ring2][Ring1][Ring1][Ring1][Branch1][=C][C][=Ring2][Ring1][Branch2][C][Ring2][Ring1][S][Branch1][C][Mo][Mo][C][=N][O][N][=C][Ring2][Branch1][C][Ring1][Branch1][S][C][Ring2][Branch1][=Branch2][=S],{[$]c1ccc(-c2sc(-c3ccc(-c4cc5c(-c6ccc([Cr])s6)c6sc([$])cc6c(-c6ccc([Cr])s6)c5s4)s3)c3c2C(=O)c2c([Cr])sc([Cr])c2C3=O)s1}.CCN1C(=O)/C(=C/c2ccc(-c3cc4c(s3)-c3cc5c(cc3C4([Mo])[Mo])-c3sc(-c4ccc(/C=C6\SC(=S)N(CC)C6=O)c6nonc46)cc3C5([Mo])[Mo])c3nonc23)SC1=S
PBDB-T,IDTBSR,-5.297777777777778,-3.4170000000000003,1.7681818181818183,-1.8807777777777777,-5.41,-3.88,-1.5300000000000002,1.53,1:2,CB,_,130.0,MoOx,ZnO/PFN-Br,6.95,6.9416595,0.95,13.95,52.38,Cc1ccc(-c2sc(-c3ccc(-c4cc5c(-c6ccc([Cr])s6)c6sc(C)cc6c(-c6ccc([Cr])s6)c5s4)s3)c3c2C(=O)c2c([Cr])sc([Cr])c2C3=O)s1.CCN1C(=O)/C(=C/c2ccc(-c3cc4c(s3)-c3cc5c(cc3C4([Mo])[Mo])-c3sc(-c4ccc(/C=C6\SC(=S)N(CC)C6=O)c6n[se]nc46)cc3C5([Mo])[Mo])c3n[se]nc23)SC1=S,[C][C][=C][C][=C][Branch2][#Branch1][O][C][S][C][Branch2][Branch1][O][C][=C][C][=C][Branch2][Ring2][S][C][=C][C][=C][Branch1][O][C][=C][C][=C][Branch1][C][Cr][S][Ring1][=Branch1][C][S][C][Branch1][C][C][=C][C][=Ring1][=Branch1][C][Branch1][O][C][=C][C][=C][Branch1][C][Cr][S][Ring1][=Branch1][=C][Ring2][Ring1][=Branch1][S][Ring2][Ring1][=Branch2][S][Ring2][Ring1][=C][=C][C][=Ring2][Ring2][Ring1][C][=Branch1][C][=O][C][=C][Branch1][C][Cr][S][C][Branch1][C][Cr][=C][Ring1][#Branch1][C][Ring1][N][=O][S][Ring2][Branch1][Ring1].[C][C][N][C][=Branch1][C][=O][/C][=Branch2][#Branch1][S][=C][/C][=C][C][=C][Branch2][=Branch1][=C][C][=C][C][=C][Branch1][Ring2][S][Ring1][Branch1][C][=C][C][=C][Branch1][N][C][=C][Ring1][=Branch1][C][Ring1][#Branch2][Branch1][C][Mo][Mo][C][S][C][Branch2][Ring1][P][C][=C][C][=C][Branch1][P][/C][=C][\S][C][=Branch1][C][=S][N][Branch1][Ring1][C][C][C][Ring1][Branch2][=O][C][=N][Se][N][=C][Ring2][Ring1][Ring1][Ring1][Branch1][=C][C][=Ring2][Ring1][Branch2][C][Ring2][Ring1][S][Branch1][C][Mo][Mo][C][=N][Se][N][=C][Ring2][Branch1][C][Ring1][Branch1][S][C][Ring2][Branch1][=Branch2][=S],{[$]c1ccc(-c2sc(-c3ccc(-c4cc5c(-c6ccc([Cr])s6)c6sc([$])cc6c(-c6ccc([Cr])s6)c5s4)s3)c3c2C(=O)c2c([Cr])sc([Cr])c2C3=O)s1}.CCN1C(=O)/C(=C/c2ccc(-c3cc4c(s3)-c3cc5c(cc3C4([Mo])[Mo])-c3sc(-c4ccc(/C=C6\SC(=S)N(CC)C6=O)c6n[se]nc46)cc3C5([Mo])[Mo])c3n[se]nc23)SC1=S
PBDB-T,TTIC-M,-5.297777777777778,-3.4170000000000003,1.7681818181818183,-1.8807777777777777,-5.49,-4.03,-1.46,1.44,1:1.5,DCB,DIO,175.0,MoOx,ZnO,11.48,11.4856,0.8,20.51,70.0,Cc1ccc(-c2sc(-c3ccc(-c4cc5c(-c6ccc([Cr])s6)c6sc(C)cc6c(-c6ccc([Cr])s6)c5s4)s3)c3c2C(=O)c2c([Cr])sc([Cr])c2C3=O)s1.Cc1ccc2c(c1)C(=C(C#N)C#N)/C(=C/c1cc3c(s1)-c1sc4c5c(sc4c1C3(c1ccc([Mo])cc1)c1ccc([Mo])cc1)-c1sc(/C=C3\C(=O)c4ccc(C)cc4C3=C(C#N)C#N)cc1C5(c1ccc([Mo])cc1)c1ccc([Mo])cc1)C2=O,[C][C][=C][C][=C][Branch2][#Branch1][O][C][S][C][Branch2][Branch1][O][C][=C][C][=C][Branch2][Ring2][S][C][=C][C][=C][Branch1][O][C][=C][C][=C][Branch1][C][Cr][S][Ring1][=Branch1][C][S][C][Branch1][C][C][=C][C][=Ring1][=Branch1][C][Branch1][O][C][=C][C][=C][Branch1][C][Cr][S][Ring1][=Branch1][=C][Ring2][Ring1][=Branch1][S][Ring2][Ring1][=Branch2][S][Ring2][Ring1][=C][=C][C][=Ring2][Ring2][Ring1][C][=Branch1][C][=O][C][=C][Branch1][C][Cr][S][C][Branch1][C][Cr][=C][Ring1][#Branch1][C][Ring1][N][=O][S][Ring2][Branch1][Ring1].[C][C][=C][C][=C][C][=Branch1][Ring2][=C][Ring1][=Branch1][C][=Branch1][Branch2][=C][Branch1][Ring1][C][#N][C][#N][/C][=Branch2][=Branch2][#Branch1][=C][/C][=C][C][=C][Branch1][Ring2][S][Ring1][Branch1][C][S][C][C][=C][Branch2][Ring2][Ring1][S][C][=Ring1][Branch1][C][=Ring1][Branch2][C][Ring1][N][Branch1][N][C][=C][C][=C][Branch1][C][Mo][C][=C][Ring1][#Branch1][C][=C][C][=C][Branch1][C][Mo][C][=C][Ring1][#Branch1][C][S][C][Branch2][Ring1][N][/C][=C][\C][=Branch1][C][=O][C][=C][C][=C][Branch1][C][C][C][=C][Ring1][#Branch1][C][Ring1][O][=C][Branch1][Ring1][C][#N][C][#N][=C][C][=Ring2][Ring1][=Branch1][C][Ring2][Ring2][O][Branch1][N][C][=C][C][=C][Branch1][C][Mo][C][=C][Ring1][#Branch1][C][=C][C][=C][Branch1][C][Mo][C][=C][Ring1][#Branch1][C][Ring2][=Branch1][=N][=O],{[$]c1ccc(-c2sc(-c3ccc(-c4cc5c(-c6ccc([Cr])s6)c6sc([$])cc6c(-c6ccc([Cr])s6)c5s4)s3)c3c2C(=O)c2c([Cr])sc([Cr])c2C3=O)s1}.Cc1ccc2c(c1)C(=C(C#N)C#N)/C(=C/c1cc3c(s1)-c1sc4c5c(sc4c1C3(c1ccc([Mo])cc1)c1ccc([Mo])cc1)-c1sc(/C=C3\C(=O)c4ccc(C)cc4C3=C(C#N)C#N)cc1C5(c1ccc([Mo])cc1)c1ccc([Mo])cc1)C2=O
J52,ITIC,-5.218181818181818,-3.282,1.95,-1.9361818181818176,-5.574285714285715,-3.9143137254901954,-1.659971988795519,1.5857894736842106,1:1.5,CF,_,25.0,PEDOT:PSS,PDINO,3.78,3.77075952,0.803,10.87,43.2,Cc1ccc(-c2c(F)c(F)c(-c3ccc(-c4cc5c(-c6ccc([Cr])s6)c6sc(C)cc6c(-c6ccc([Cr])s6)c5s4)s3)c3nn([Sc])nc23)s1.N#CC(C#N)=C1/C(=C/c2cc3sc4c(c3s2)C(c2ccc([Mo])cc2)(c2ccc([Mo])cc2)c2cc3c(cc2-4)C(c2ccc([Mo])cc2)(c2ccc([Mo])cc2)c2c-3sc3cc(/C=C4\C(=O)c5ccccc5C4=C(C#N)C#N)sc23)C(=O)c2ccccc21,[C][C][=C][C][=C][Branch2][#Branch1][Branch1][C][=C][Branch1][C][F][C][Branch1][C][F][=C][Branch2][Branch1][O][C][=C][C][=C][Branch2][Ring2][S][C][=C][C][=C][Branch1][O][C][=C][C][=C][Branch1][C][Cr][S][Ring1][=Branch1][C][S][C][Branch1][C][C][=C][C][=Ring1][=Branch1][C][Branch1][O][C][=C][C][=C][Branch1][C][Cr][S][Ring1][=Branch1][=C][Ring2][Ring1][=Branch1][S][Ring2][Ring1][=Branch2][S][Ring2][Ring1][=C][C][=N][N][Branch1][C][Sc][N][=C][Ring2][Ring2][#Branch2][Ring1][=Branch1][S][Ring2][Ring2][#C].[N][#C][C][Branch1][Ring1][C][#N][=C][/C][=Branch2][=Branch2][#C][=C][/C][=C][C][S][C][=C][Branch1][#Branch1][C][=Ring1][Branch1][S][Ring1][Branch2][C][Branch1][N][C][=C][C][=C][Branch1][C][Mo][C][=C][Ring1][#Branch1][Branch1][N][C][=C][C][=C][Branch1][C][Mo][C][=C][Ring1][#Branch1][C][=C][C][=C][Branch1][Branch2][C][=C][Ring1][=Branch1][Ring2][Ring1][=Branch2][C][Branch1][N][C][=C][C][=C][Branch1][C][Mo][C][=C][Ring1][#Branch1][Branch1][N][C][=C][C][=C][Branch1][C][Mo][C][=C][Ring1][#Branch1][C][=C][Ring2][Ring1][Branch1][S][C][C][=C][Branch2][Ring1][=Branch2][/C][=C][\C][=Branch1][C][=O][C][=C][C][=C][C][=C][Ring1][=Branch1][C][Ring1][#Branch2][=C][Branch1][Ring1][C][#N][C][#N][S][C][Ring2][Ring1][Branch2][=Ring2][Ring1][Branch1][C][=Branch1][C][=O][C][=C][C][=C][C][=C][Ring1][=Branch1][Ring2][=Branch1][#C],{[$]c1ccc(-c2c(F)c(F)c(-c3ccc(-c4cc5c(-c6ccc([Cr])s6)c6sc([$])cc6c(-c6ccc([Cr])s6)c5s4)s3)c3nn([Sc])nc23)s1}.N#CC(C#N)=C1/C(=C/c2cc3sc4c(c3s2)C(c2ccc([Mo])cc2)(c2ccc([Mo])cc2)c2cc3c(cc2-4)C(c2ccc([Mo])cc2)(c2ccc([Mo])cc2)c2c-3sc3cc(/C=C4\C(=O)c5ccccc5C4=C(C#N)C#N)sc23)C(=O)c2ccccc21
PBDB-T,IDTT2F,-5.297777777777778,-3.4170000000000003,1.7681818181818183,-1.8807777777777777,-5.57,-4.03,-1.54,1.46,1:1,DCB,_,25.0,MoOx,ZnO,8.85,8.845929,0.81,18.51,59.0,Cc1ccc(-c2sc(-c3ccc(-c4cc5c(-c6ccc([Cr])s6)c6sc(C)cc6c(-c6ccc([Cr])s6)c5s4)s3)c3c2C(=O)c2c([Cr])sc([Cr])c2C3=O)s1.N#CC(C#N)=C1/C(=C/c2ccc(-c3cc4c(s3)-c3cc5c(cc3C4(c3ccc([Mo])cc3)c3ccc([Mo])cc3)-c3sc(-c4ccc(/C=C6\C(=O)c7cc(F)c(F)cc7C6=C(C#N)C#N)s4)cc3C5(c3ccc([Mo])cc3)c3ccc([Mo])cc3)s2)C(=O)c2cc(F)c(F)cc21,[C][C][=C][C][=C][Branch2][#Branch1][O][C][S][C][Branch2][Branch1][O][C][=C][C][=C][Branch2][Ring2][S][C][=C][C][=C][Branch1][O][C][=C][C][=C][Branch1][C][Cr][S][Ring1][=Branch1][C][S][C][Branch1][C][C][=C][C][=Ring1][=Branch1][C][Branch1][O][C][=C][C][=C][Branch1][C][Cr][S][Ring1][=Branch1][=C][Ring2][Ring1][=Branch1][S][Ring2][Ring1][=Branch2][S][Ring2][Ring1][=C][=C][C][=Ring2][Ring2][Ring1][C][=Branch1][C][=O][C][=C][Branch1][C][Cr][S][C][Branch1][C][Cr][=C][Ring1][#Branch1][C][Ring1][N][=O][S][Ring2][Branch1][Ring1].[N][#C][C][Branch1][Ring1][C][#N][=C][/C][=Branch2][#Branch2][N][=C][/C][=C][C][=C][Branch2][=Branch2][S][C][=C][C][=C][Branch1][Ring2][S][Ring1][Branch1][C][=C][C][=C][Branch2][Ring1][S][C][=C][Ring1][=Branch1][C][Ring1][#Branch2][Branch1][N][C][=C][C][=C][Branch1][C][Mo][C][=C][Ring1][#Branch1][C][=C][C][=C][Branch1][C][Mo][C][=C][Ring1][#Branch1][C][S][C][Branch2][Ring2][#Branch2][C][=C][C][=C][Branch2][Ring1][#C][/C][=C][\C][=Branch1][C][=O][C][=C][C][Branch1][C][F][=C][Branch1][C][F][C][=C][Ring1][Branch2][C][Ring1][N][=C][Branch1][Ring1][C][#N][C][#N][S][Ring2][Ring1][#Branch1][=C][C][=Ring2][Ring1][N][C][Ring2][Ring2][S][Branch1][N][C][=C][C][=C][Branch1][C][Mo][C][=C][Ring1][#Branch1][C][=C][C][=C][Branch1][C][Mo][C][=C][Ring1][#Branch1][S][Ring2][=Branch1][#Branch2][C][=Branch1][C][=O][C][=C][C][Branch1][C][F][=C][Branch1][C][F][C][=C][Ring1][Branch2][Ring2][#Branch1][#Branch1],{[$]c1ccc(-c2sc(-c3ccc(-c4cc5c(-c6ccc([Cr])s6)c6sc([$])cc6c(-c6ccc([Cr])s6)c5s4)s3)c3c2C(=O)c2c([Cr])sc([Cr])c2C3=O)s1}.N#CC(C#N)=C1/C(=C/c2ccc(-c3cc4c(s3)-c3cc5c(cc3C4(c3ccc([Mo])cc3)c3ccc([Mo])cc3)-c3sc(-c4ccc(/C=C6\C(=O)c7cc(F)c(F)cc7C6=C(C#N)C#N)s4)cc3C5(c3ccc([Mo])cc3)c3ccc([Mo])cc3)s2)C(=O)c2cc(F)c(F)cc21
PBDB-T,IDTOT2F,-5.297777777777778,-3.4170000000000003,1.7681818181818183,-1.8807777777777777,-5.54,-3.94,-1.6,1.44,1:1,DCB,_,25.0,MoOx,ZnO,12.79,12.77244,0.85,20.87,72.0,Cc1ccc(-c2sc(-c3ccc(-c4cc5c(-c6ccc([Cr])s6)c6sc(C)cc6c(-c6ccc([Cr])s6)c5s4)s3)c3c2C(=O)c2c([Cr])sc([Cr])c2C3=O)s1.N#CC(C#N)=C1/C(=C/c2ccc(-c3sc4c(c3O[Mo])C(c3ccc([Mo])cc3)(c3ccc([Mo])cc3)c3cc5c(cc3-4)C(c3ccc([Mo])cc3)(c3ccc([Mo])cc3)c3c-5sc(-c4ccc(/C=C5\C(=O)c6cc(F)c(F)cc6C5=C(C#N)C#N)s4)c3O[Mo])s2)C(=O)c2cc(F)c(F)cc21,[C][C][=C][C][=C][Branch2][#Branch1][O][C][S][C][Branch2][Branch1][O][C][=C][C][=C][Branch2][Ring2][S][C][=C][C][=C][Branch1][O][C][=C][C][=C][Branch1][C][Cr][S][Ring1][=Branch1][C][S][C][Branch1][C][C][=C][C][=Ring1][=Branch1][C][Branch1][O][C][=C][C][=C][Branch1][C][Cr][S][Ring1][=Branch1][=C][Ring2][Ring1][=Branch1][S][Ring2][Ring1][=Branch2][S][Ring2][Ring1][=C][=C][C][=Ring2][Ring2][Ring1][C][=Branch1][C][=O][C][=C][Branch1][C][Cr][S][C][Branch1][C][Cr][=C][Ring1][#Branch1][C][Ring1][N][=O][S][Ring2][Branch1][Ring1].[N][#C][C][Branch1][Ring1][C][#N][=C][/C][=Branch2][O][Ring2][=C][/C][=C][C][=C][Branch2][#Branch2][Branch2][C][S][C][=C][Branch1][=Branch1][C][=Ring1][Branch1][O][Mo][C][Branch1][N][C][=C][C][=C][Branch1][C][Mo][C][=C][Ring1][#Branch1][Branch1][N][C][=C][C][=C][Branch1][C][Mo][C][=C][Ring1][#Branch1][C][=C][C][=C][Branch1][Branch2][C][=C][Ring1][=Branch1][Ring2][Ring1][#Branch2][C][Branch1][N][C][=C][C][=C][Branch1][C][Mo][C][=C][Ring1][#Branch1][Branch1][N][C][=C][C][=C][Branch1][C][Mo][C][=C][Ring1][#Branch1][C][=C][Ring2][Ring1][Branch1][S][C][Branch2][Ring2][#Branch2][C][=C][C][=C][Branch2][Ring1][#C][/C][=C][\C][=Branch1][C][=O][C][=C][C][Branch1][C][F][=C][Branch1][C][F][C][=C][Ring1][Branch2][C][Ring1][N][=C][Branch1][Ring1][C][#N][C][#N][S][Ring2][Ring1][#Branch1][=C][Ring2][Ring1][N][O][Mo][S][Ring2][=Branch1][=C][C][=Branch1][C][=O][C][=C][C][Branch1][C][F][=C][Branch1][C][F][C][=C][Ring1][Branch2][Ring2][#Branch1][O],{[$]c1ccc(-c2sc(-c3ccc(-c4cc5c(-c6ccc([Cr])s6)c6sc([$])cc6c(-c6ccc([Cr])s6)c5s4)s3)c3c2C(=O)c2c([Cr])sc([Cr])c2C3=O)s1}.N#CC(C#N)=C1/C(=C/c2ccc(-c3sc4c(c3O[Mo])C(c3ccc([Mo])cc3)(c3ccc([Mo])cc3)c3cc5c(cc3-4)C(c3ccc([Mo])cc3)(c3ccc([Mo])cc3)c3c-5sc(-c4ccc(/C=C5\C(=O)c6cc(F)c(F)cc6C5=C(C#N)C#N)s4)c3O[Mo])s2)C(=O)c2cc(F)c(F)cc21
PBDB-T,IDTIC,-5.297777777777778,-3.4170000000000003,1.7681818181818183,-1.8807777777777777,-5.885,-3.91,-1.975,1.69,1:1,CB,DIO,25.0,MoOx,ZnO,6.05,6.0269554,0.89,10.94,61.9,Cc1ccc(-c2sc(-c3ccc(-c4cc5c(-c6ccc([Cr])s6)c6sc(C)cc6c(-c6ccc([Cr])s6)c5s4)s3)c3c2C(=O)c2c([Cr])sc([Cr])c2C3=O)s1.N#CC(C#N)=C1/C(=C/c2cc3c(s2)-c2cc4c(cc2C3([Sc])[Sc])-c2sc(/C=C3\C(=O)c5ccccc5C3=C(C#N)C#N)cc2C4([Sc])[Sc])C(=O)c2ccccc21,[C][C][=C][C][=C][Branch2][#Branch1][O][C][S][C][Branch2][Branch1][O][C][=C][C][=C][Branch2][Ring2][S][C][=C][C][=C][Branch1][O][C][=C][C][=C][Branch1][C][Cr][S][Ring1][=Branch1][C][S][C][Branch1][C][C][=C][C][=Ring1][=Branch1][C][Branch1][O][C][=C][C][=C][Branch1][C][Cr][S][Ring1][=Branch1][=C][Ring2][Ring1][=Branch1][S][Ring2][Ring1][=Branch2][S][Ring2][Ring1][=C][=C][C][=Ring2][Ring2][Ring1][C][=Branch1][C][=O][C][=C][Branch1][C][Cr][S][C][Branch1][C][Cr][=C][Ring1][#Branch1][C][Ring1][N][=O][S][Ring2][Branch1][Ring1].[N][#C][C][Branch1][Ring1][C][#N][=C][/C][=Branch2][=Branch1][#Branch1][=C][/C][=C][C][=C][Branch1][Ring2][S][Ring1][Branch1][C][=C][C][=C][Branch1][N][C][=C][Ring1][=Branch1][C][Ring1][#Branch2][Branch1][C][Sc][Sc][C][S][C][Branch2][Ring1][=Branch2][/C][=C][\C][=Branch1][C][=O][C][=C][C][=C][C][=C][Ring1][=Branch1][C][Ring1][#Branch2][=C][Branch1][Ring1][C][#N][C][#N][=C][C][=Ring2][Ring1][Branch1][C][Ring2][Ring1][=N][Branch1][C][Sc][Sc][C][=Branch1][C][=O][C][=C][C][=C][C][=C][Ring1][=Branch1][Ring2][Ring2][P],{[$]c1ccc(-c2sc(-c3ccc(-c4cc5c(-c6ccc([Cr])s6)c6sc([$])cc6c(-c6ccc([Cr])s6)c5s4)s3)c3c2C(=O)c2c([Cr])sc([Cr])c2C3=O)s1}.N#CC(C#N)=C1/C(=C/c2cc3c(s2)-c2cc4c(cc2C3([Sc])[Sc])-c2sc(/C=C3\C(=O)c5ccccc5C3=C(C#N)C#N)cc2C4([Sc])[Sc])C(=O)c2ccccc21