Donor,Acceptor,HOMO_D_eV,LUMO_D_eV,Eg_D_eV,Ehl_D_eV,HOMO_A_eV,LUMO_A_eV,Ehl_A_eV,Eg_A_eV,D_A_ratio_m_m,solvent,solvent_additive,annealing_temperature,hole_contact_layer,electron_contact_layer,PCE_percent,calc_PCE_percent,Voc_V,Jsc_mA_cm_pow_neg2,FF_percent,DA_SMILES,DA_SELFIES,DA_BigSMILES
J101,ZITI,-5.3,-3.5,1.53,-1.7999999999999998,-5.550000000000001,-3.78,-1.770000000000001,1.53,1:1,CF,_,120.0,PEDOT:PSS,PDINO,14.43,14.431674,0.937,21.25,72.48,CCCCCCCCC(CCCCCC)Cn1nc2c(-c3ccc(C)s3)c(Cl)c(Cl)c(-c3ccc(-c4cc5c(-c6ccc([Si](CCC)(CCC)CCC)s6)c6sc(C)cc6c(C6=CCC([Si](CCC)(CCC)CCC)S6)c5s4)s3)c2n1.N#CC(C#N)=C1/C(=C/c2cc3c(s2)-c2cc4c(cc2C3)C2C(c3cc5c(cc3C2([Sc])[Sc])-c2sc(/C=C3\C(=O)c6cc(F)ccc6C3=C(C#N)C#N)cc2C5)C4([Sc])[Sc])C(=O)c2cc(F)ccc21,[C][C][C][C][C][C][C][C][C][Branch1][#Branch1][C][C][C][C][C][C][C][N][N][=C][C][Branch1][O][C][=C][C][=C][Branch1][C][C][S][Ring1][=Branch1][=C][Branch1][C][Cl][C][Branch1][C][Cl][=C][Branch2][#Branch1][#Branch1][C][=C][C][=C][Branch2][=Branch1][N][C][=C][C][=C][Branch2][Ring1][Branch2][C][=C][C][=C][Branch1][#C][Si][Branch1][Ring2][C][C][C][Branch1][Ring2][C][C][C][C][C][C][S][Ring1][#C][C][S][C][Branch1][C][C][=C][C][=Ring1][=Branch1][C][Branch2][Ring1][Branch2][C][=C][C][C][Branch1][#C][Si][Branch1][Ring2][C][C][C][Branch1][Ring2][C][C][C][C][C][C][S][Ring1][#C][=C][Ring2][Ring2][Branch2][S][Ring2][Ring2][O][S][Ring2][Ring2][S][C][Ring2][Branch1][=C][=N][Ring2][Branch1][P].[N][#C][C][Branch1][Ring1][C][#N][=C][/C][=Branch2][#Branch1][S][=C][/C][=C][C][=C][Branch1][Ring2][S][Ring1][Branch1][C][=C][C][=C][Branch1][Branch2][C][=C][Ring1][=Branch1][C][Ring1][#Branch2][C][C][Branch2][Branch1][N][C][=C][C][=C][Branch1][N][C][=C][Ring1][=Branch1][C][Ring1][=Branch2][Branch1][C][Sc][Sc][C][S][C][Branch2][Ring1][N][/C][=C][\C][=Branch1][C][=O][C][=C][C][Branch1][C][F][=C][C][=C][Ring1][#Branch1][C][Ring1][O][=C][Branch1][Ring1][C][#N][C][#N][=C][C][=Ring2][Ring1][=Branch1][C][Ring2][Ring1][=C][C][Ring2][Ring2][Branch2][Branch1][C][Sc][Sc][C][=Branch1][C][=O][C][=C][C][Branch1][C][F][=C][C][=C][Ring1][#Branch1][Ring2][Branch1][=N],{CCCCCCCCC(CCCCCC)Cn1nc2c(-c3ccc([$])s3)c(Cl)c(Cl)c(-c3ccc(-c4cc5c(-c6ccc([Si](CCC)(CCC)CCC)s6)c6sc([$])cc6c(C6=CCC([Si](CCC)(CCC)CCC)S6)c5s4)s3)c2n1}.N#CC(C#N)=C1/C(=C/c2cc3c(s2)-c2cc4c(cc2C3)C2C(c3cc5c(cc3C2([Sc])[Sc])-c2sc(/C=C3\C(=O)c6cc(F)ccc6C3=C(C#N)C#N)cc2C5)C4([Sc])[Sc])C(=O)c2cc(F)ccc21
J71,ZITI,-5.353333333333333,-3.4318181818181825,1.8642857142857143,-1.92151515151515,-5.550000000000001,-3.78,-1.770000000000001,1.53,1:1,CF,_,25.0,PEDOT:PSS,PDINO,12.82,12.82073822,0.912,20.23,69.49,Cc1ccc(-c2c(F)c(F)c(-c3ccc(-c4cc5c(-c6ccc([V])s6)c6sc(C)cc6c(-c6ccc([V])s6)c5s4)s3)c3nn([Sc])nc23)s1.N#CC(C#N)=C1/C(=C/c2cc3c(s2)-c2cc4c(cc2C3)C2C(c3cc5c(cc3C2([Sc])[Sc])-c2sc(/C=C3\C(=O)c6cc(F)ccc6C3=C(C#N)C#N)cc2C5)C4([Sc])[Sc])C(=O)c2cc(F)ccc21,[C][C][=C][C][=C][Branch2][#Branch1][Branch1][C][=C][Branch1][C][F][C][Branch1][C][F][=C][Branch2][Branch1][O][C][=C][C][=C][Branch2][Ring2][S][C][=C][C][=C][Branch1][O][C][=C][C][=C][Branch1][C][V][S][Ring1][=Branch1][C][S][C][Branch1][C][C][=C][C][=Ring1][=Branch1][C][Branch1][O][C][=C][C][=C][Branch1][C][V][S][Ring1][=Branch1][=C][Ring2][Ring1][=Branch1][S][Ring2][Ring1][=Branch2][S][Ring2][Ring1][=C][C][=N][N][Branch1][C][Sc][N][=C][Ring2][Ring2][#Branch2][Ring1][=Branch1][S][Ring2][Ring2][#C].[N][#C][C][Branch1][Ring1][C][#N][=C][/C][=Branch2][#Branch1][S][=C][/C][=C][C][=C][Branch1][Ring2][S][Ring1][Branch1][C][=C][C][=C][Branch1][Branch2][C][=C][Ring1][=Branch1][C][Ring1][#Branch2][C][C][Branch2][Branch1][N][C][=C][C][=C][Branch1][N][C][=C][Ring1][=Branch1][C][Ring1][=Branch2][Branch1][C][Sc][Sc][C][S][C][Branch2][Ring1][N][/C][=C][\C][=Branch1][C][=O][C][=C][C][Branch1][C][F][=C][C][=C][Ring1][#Branch1][C][Ring1][O][=C][Branch1][Ring1][C][#N][C][#N][=C][C][=Ring2][Ring1][=Branch1][C][Ring2][Ring1][=C][C][Ring2][Ring2][Branch2][Branch1][C][Sc][Sc][C][=Branch1][C][=O][C][=C][C][Branch1][C][F][=C][C][=C][Ring1][#Branch1][Ring2][Branch1][=N],{[$]c1ccc(-c2c(F)c(F)c(-c3ccc(-c4cc5c(-c6ccc([V])s6)c6sc([$])cc6c(-c6ccc([V])s6)c5s4)s3)c3nn([Sc])nc23)s1}.N#CC(C#N)=C1/C(=C/c2cc3c(s2)-c2cc4c(cc2C3)C2C(c3cc5c(cc3C2([Sc])[Sc])-c2sc(/C=C3\C(=O)c6cc(F)ccc6C3=C(C#N)C#N)cc2C5)C4([Sc])[Sc])C(=O)c2cc(F)ccc21
PTB7-Th,DICTF-C10,-5.21,-3.542368421052632,1.5883333333333332,-1.667631578947368,-5.67,-3.89,-1.7799999999999998,1.76,2:3,o-DCB,_,25.0,MoOx,ZnO,6.93,8.3277875,0.865,19.255,50.0,Cc1cc2c(-c3ccc([Cr])s3)c3sc(-c4sc(C)c5c(F)c(C(=O)O[Cr])sc45)cc3c(-c3ccc([Cr])s3)c2s1.CCCCCCCCCCC1(CCCCCCCCCC)c2cc(-c3ccc(C=C4C(=O)c5ccccc5C4=C(C#N)C#N)s3)ccc2-c2ccc(-c3ccc(C=C4C(=O)c5ccccc5C4=C(C#N)C#N)s3)cc21,[C][C][=C][C][=C][Branch1][O][C][=C][C][=C][Branch1][C][Cr][S][Ring1][=Branch1][C][S][C][Branch2][Ring1][O][C][S][C][Branch1][C][C][=C][C][Branch1][C][F][=C][Branch1][#Branch1][C][=Branch1][C][=O][O][Cr][S][C][=Ring1][=C][Ring1][#Branch2][=C][C][=Ring2][Ring1][Ring1][C][Branch1][O][C][=C][C][=C][Branch1][C][Cr][S][Ring1][=Branch1][=C][Ring2][Ring2][Ring1][S][Ring2][Ring2][=Branch1].[C][C][C][C][C][C][C][C][C][C][C][Branch1][O][C][C][C][C][C][C][C][C][C][C][C][=C][C][Branch2][Ring2][Ring2][C][=C][C][=C][Branch2][Ring1][=Branch2][C][=C][C][=Branch1][C][=O][C][=C][C][=C][C][=C][Ring1][=Branch1][C][Ring1][#Branch2][=C][Branch1][Ring1][C][#N][C][#N][S][Ring2][Ring1][Branch1][=C][C][=C][Ring2][Ring1][O][C][=C][C][=C][Branch2][Ring2][Ring2][C][=C][C][=C][Branch2][Ring1][=Branch2][C][=C][C][=Branch1][C][=O][C][=C][C][=C][C][=C][Ring1][=Branch1][C][Ring1][#Branch2][=C][Branch1][Ring1][C][#N][C][#N][S][Ring2][Ring1][Branch1][C][=C][Ring2][Ring1][O][Ring2][Branch1][P],{[$]c1cc2c(-c3ccc([Cr])s3)c3sc(-c4sc([$])c5c(F)c(C(=O)O[Cr])sc45)cc3c(-c3ccc([Cr])s3)c2s1}.CCCCCCCCCCC1(CCCCCCCCCC)c2cc(-c3ccc(C=C4C(=O)c5ccccc5C4=C(C#N)C#N)s3)ccc2-c2ccc(-c3ccc(C=C4C(=O)c5ccccc5C4=C(C#N)C#N)s3)cc21