Donor,Acceptor,HOMO_D_eV,LUMO_D_eV,Eg_D_eV,Ehl_D_eV,HOMO_A_eV,LUMO_A_eV,Ehl_A_eV,Eg_A_eV,D_A_ratio_m_m,solvent,solvent_additive,annealing_temperature,hole_contact_layer,electron_contact_layer,PCE_percent,calc_PCE_percent,Voc_V,Jsc_mA_cm_pow_neg2,FF_percent,DA_SMILES,DA_SELFIES,DA_BigSMILES
PBDB-T-SF,NCBDT-4Cl,-5.41,-3.62,1.8,-1.79,-5.6,-4.02,-1.58,1.4,1:1,CF,DIO,110.0,PEDOT:PSS,PDINO,14.1,14.13174855,0.851,22.35,74.3,Cc1cc2c(-c3cc(F)c([Cr])s3)c3sc(-c4ccc(-c5sc(-c6cccs6)c6c5C(=O)c5c([Cr])sc([Cr])c5C6=O)s4)cc3c(-c3cc(F)c([Cr])s3)c2s1.CCCCCCCCc1c2sc3c(c2c(CCCCCCCC)c2sc4c(c12)C(c1ccc(CCCCCC)cc1)(c1ccc(CCCCCC)cc1)c1cc(C=C2C(=O)c5cc(Cl)c(Cl)cc5C2=C(C#N)C#N)sc1-4)C(c1ccc(CCCCCC)cc1)(c1ccc(CCCCCC)cc1)c1cc(C=C2C(=O)c4cc(Cl)c(Cl)cc4C2=C(C#N)C#N)sc1-3,[C][C][=C][C][=C][Branch1][=C][C][=C][C][Branch1][C][F][=C][Branch1][C][Cr][S][Ring1][#Branch1][C][S][C][Branch2][Ring2][P][C][=C][C][=C][Branch2][Ring2][=Branch1][C][S][C][Branch1][Branch2][C][=C][C][=C][S][Ring1][Branch1][=C][C][=Ring1][#Branch2][C][=Branch1][C][=O][C][=C][Branch1][C][Cr][S][C][Branch1][C][Cr][=C][Ring1][#Branch1][C][Ring1][N][=O][S][Ring2][Ring1][#Branch2][=C][C][=Ring2][Ring1][#C][C][Branch1][=C][C][=C][C][Branch1][C][F][=C][Branch1][C][Cr][S][Ring1][#Branch1][=C][Ring2][Ring2][P][S][Ring2][Branch1][Ring2].[C][C][C][C][C][C][C][C][C][=C][S][C][=C][Branch2][Branch2][N][C][Ring1][Branch1][=C][Branch1][=Branch2][C][C][C][C][C][C][C][C][C][S][C][=C][Branch1][#Branch1][C][Ring2][Ring1][Ring2][=Ring1][Branch1][C][Branch1][P][C][=C][C][=C][Branch1][#Branch1][C][C][C][C][C][C][C][=C][Ring1][N][Branch1][P][C][=C][C][=C][Branch1][#Branch1][C][C][C][C][C][C][C][=C][Ring1][N][C][C][=C][Branch2][Ring1][#C][C][=C][C][=Branch1][C][=O][C][=C][C][Branch1][C][Cl][=C][Branch1][C][Cl][C][=C][Ring1][Branch2][C][Ring1][N][=C][Branch1][Ring1][C][#N][C][#N][S][C][=Ring2][Ring1][#Branch1][Ring2][Branch1][Ring1][C][Branch1][P][C][=C][C][=C][Branch1][#Branch1][C][C][C][C][C][C][C][=C][Ring1][N][Branch1][P][C][=C][C][=C][Branch1][#Branch1][C][C][C][C][C][C][C][=C][Ring1][N][C][C][=C][Branch2][Ring1][#C][C][=C][C][=Branch1][C][=O][C][=C][C][Branch1][C][Cl][=C][Branch1][C][Cl][C][=C][Ring1][Branch2][C][Ring1][N][=C][Branch1][Ring1][C][#N][C][#N][S][C][=Ring2][Ring1][#Branch1][Ring2][Branch2][P],{[$]c1cc2c(-c3cc(F)c([Cr])s3)c3sc(-c4ccc(-c5sc(-c6ccc([$])s6)c6c5C(=O)c5c([Cr])sc([Cr])c5C6=O)s4)cc3c(-c3cc(F)c([Cr])s3)c2s1}.CCCCCCCCc1c2sc3c(c2c(CCCCCCCC)c2sc4c(c12)C(c1ccc(CCCCCC)cc1)(c1ccc(CCCCCC)cc1)c1cc(C=C2C(=O)c5cc(Cl)c(Cl)cc5C2=C(C#N)C#N)sc1-4)C(c1ccc(CCCCCC)cc1)(c1ccc(CCCCCC)cc1)c1cc(C=C2C(=O)c4cc(Cl)c(Cl)cc4C2=C(C#N)C#N)sc1-3
PBDB-TF,Y6,-5.498461538461539,-3.65,1.8075,-1.84846153846154,-5.65,-4.1,-1.5500000000000007,1.81,1:1.2,CF,CN,110.0,PEDOT:PSS,PDINO,15.7,15.707252,0.83,25.3,74.8,Cc1ccc(-c2sc(-c3ccc(-c4cc5c(-c6cc(F)c([Cr])s6)c6sc(C)cc6c(-c6cc(F)c([Cr])s6)c5s4)s3)c3c2C(=O)c2c([Cr])sc([Cr])c2C3=O)s1.N#CC(C#N)=C1/C(=C/c2sc3c(sc4c5c6nsnc6c6c7sc8c([Pd])c(/C=C9\C(=O)c%10cc(F)c(F)cc%10C9=C(C#N)C#N)sc8c7n([Cr])c6c5n([Cr])c34)c2[Pd])C(=O)c2cc(F)c(F)cc21,[C][C][=C][C][=C][Branch2][#Branch1][P][C][S][C][Branch2][Branch1][P][C][=C][C][=C][Branch2][Branch1][=Branch1][C][=C][C][=C][Branch1][=C][C][=C][C][Branch1][C][F][=C][Branch1][C][Cr][S][Ring1][#Branch1][C][S][C][Branch1][C][C][=C][C][=Ring1][=Branch1][C][Branch1][=C][C][=C][C][Branch1][C][F][=C][Branch1][C][Cr][S][Ring1][#Branch1][=C][Ring2][Ring1][Branch2][S][Ring2][Ring1][O][S][Ring2][Ring1][S][=C][C][=Ring2][Ring2][Branch1][C][=Branch1][C][=O][C][=C][Branch1][C][Cr][S][C][Branch1][C][Cr][=C][Ring1][#Branch1][C][Ring1][N][=O][S][Ring2][Branch1][Branch1].[N][#C][C][Branch1][Ring1][C][#N][=C][/C][=Branch2][Branch2][C][=C][/C][S][C][=C][Branch2][#Branch1][Branch1][S][C][C][C][=N][S][N][=C][Ring1][Branch1][C][C][S][C][C][Branch1][C][Pd][=C][Branch2][Ring1][#C][/C][=C][\C][=Branch1][C][=O][C][=C][C][Branch1][C][F][=C][Branch1][C][F][C][=C][Ring1][Branch2][C][Ring1][N][=C][Branch1][Ring1][C][#N][C][#N][S][C][=Ring2][Ring1][Branch2][C][=Ring2][Ring1][O][N][Branch1][C][Cr][C][=Ring2][Ring1][#C][C][=Ring2][Ring2][=Branch1][N][Branch1][C][Cr][C][Ring2][Ring2][=N][=Ring2][Ring2][#Branch2][C][=Ring2][Ring2][S][Pd][C][=Branch1][C][=O][C][=C][C][Branch1][C][F][=C][Branch1][C][F][C][=C][Ring1][Branch2][Ring2][Branch1][=C],{[$]c1ccc(-c2sc(-c3ccc(-c4cc5c(-c6cc(F)c([Cr])s6)c6sc([$])cc6c(-c6cc(F)c([Cr])s6)c5s4)s3)c3c2C(=O)c2c([Cr])sc([Cr])c2C3=O)s1}.N#CC(C#N)=C1/C(=C/c2sc3c(sc4c5c6nsnc6c6c7sc8c([Pd])c(/C=C9\C(=O)c%10cc(F)c(F)cc%10C9=C(C#N)C#N)sc8c7n([Cr])c6c5n([Cr])c34)c2[Pd])C(=O)c2cc(F)c(F)cc21
PBDB-TF,IT-4F,-5.498461538461539,-3.65,1.8075,-1.84846153846154,-5.670384615384615,-4.058076923076923,-1.6123076923076916,0.7441176470588237,1:1,CB,DIO,25.0,PEDOT:PSS,PFN-Br,13.37,13.32656,0.86,20.8,74.5,Cc1ccc(-c2sc(-c3ccc(-c4cc5c(-c6cc(F)c([Cr])s6)c6sc(C)cc6c(-c6cc(F)c([Cr])s6)c5s4)s3)c3c2C(=O)c2c([Cr])sc([Cr])c2C3=O)s1.N#CC(C#N)=C1/C(=C/c2cc3sc4c(c3s2)C(c2ccc([Mo])cc2)(c2ccc([Mo])cc2)c2cc3c(cc2-4)C(c2ccc([Mo])cc2)(c2ccc([Mo])cc2)c2c-3sc3cc(/C=C4\C(=O)c5cc(F)c(F)cc5C4=C(C#N)C#N)sc23)C(=O)c2cc(F)c(F)cc21,[C][C][=C][C][=C][Branch2][#Branch1][P][C][S][C][Branch2][Branch1][P][C][=C][C][=C][Branch2][Branch1][=Branch1][C][=C][C][=C][Branch1][=C][C][=C][C][Branch1][C][F][=C][Branch1][C][Cr][S][Ring1][#Branch1][C][S][C][Branch1][C][C][=C][C][=Ring1][=Branch1][C][Branch1][=C][C][=C][C][Branch1][C][F][=C][Branch1][C][Cr][S][Ring1][#Branch1][=C][Ring2][Ring1][Branch2][S][Ring2][Ring1][O][S][Ring2][Ring1][S][=C][C][=Ring2][Ring2][Branch1][C][=Branch1][C][=O][C][=C][Branch1][C][Cr][S][C][Branch1][C][Cr][=C][Ring1][#Branch1][C][Ring1][N][=O][S][Ring2][Branch1][Branch1].[N][#C][C][Branch1][Ring1][C][#N][=C][/C][=Branch2][#Branch2][Branch1][=C][/C][=C][C][S][C][=C][Branch1][#Branch1][C][=Ring1][Branch1][S][Ring1][Branch2][C][Branch1][N][C][=C][C][=C][Branch1][C][Mo][C][=C][Ring1][#Branch1][Branch1][N][C][=C][C][=C][Branch1][C][Mo][C][=C][Ring1][#Branch1][C][=C][C][=C][Branch1][Branch2][C][=C][Ring1][=Branch1][Ring2][Ring1][=Branch2][C][Branch1][N][C][=C][C][=C][Branch1][C][Mo][C][=C][Ring1][#Branch1][Branch1][N][C][=C][C][=C][Branch1][C][Mo][C][=C][Ring1][#Branch1][C][=C][Ring2][Ring1][Branch1][S][C][C][=C][Branch2][Ring1][#C][/C][=C][\C][=Branch1][C][=O][C][=C][C][Branch1][C][F][=C][Branch1][C][F][C][=C][Ring1][Branch2][C][Ring1][N][=C][Branch1][Ring1][C][#N][C][#N][S][C][Ring2][Ring1][#Branch2][=Ring2][Ring1][#Branch1][C][=Branch1][C][=O][C][=C][C][Branch1][C][F][=C][Branch1][C][F][C][=C][Ring1][Branch2][Ring2][#Branch1][Ring1],{[$]c1ccc(-c2sc(-c3ccc(-c4cc5c(-c6cc(F)c([Cr])s6)c6sc([$])cc6c(-c6cc(F)c([Cr])s6)c5s4)s3)c3c2C(=O)c2c([Cr])sc([Cr])c2C3=O)s1}.N#CC(C#N)=C1/C(=C/c2cc3sc4c(c3s2)C(c2ccc([Mo])cc2)(c2ccc([Mo])cc2)c2cc3c(cc2-4)C(c2ccc([Mo])cc2)(c2ccc([Mo])cc2)c2c-3sc3cc(/C=C4\C(=O)c5cc(F)c(F)cc5C4=C(C#N)C#N)sc23)C(=O)c2cc(F)c(F)cc21
PBDB-TF,ITIC,-5.498461538461539,-3.65,1.8075,-1.84846153846154,-5.574285714285715,-3.9143137254901954,-1.659971988795519,1.5857894736842106,1:1,CB,DIO,25.0,PEDOT:PSS,PFN-Br,10.64,10.63727,1.0,16.1,66.07,Cc1ccc(-c2sc(-c3ccc(-c4cc5c(-c6cc(F)c([Cr])s6)c6sc(C)cc6c(-c6cc(F)c([Cr])s6)c5s4)s3)c3c2C(=O)c2c([Cr])sc([Cr])c2C3=O)s1.N#CC(C#N)=C1/C(=C/c2cc3sc4c(c3s2)C(c2ccc([Mo])cc2)(c2ccc([Mo])cc2)c2cc3c(cc2-4)C(c2ccc([Mo])cc2)(c2ccc([Mo])cc2)c2c-3sc3cc(/C=C4\C(=O)c5ccccc5C4=C(C#N)C#N)sc23)C(=O)c2ccccc21,[C][C][=C][C][=C][Branch2][#Branch1][P][C][S][C][Branch2][Branch1][P][C][=C][C][=C][Branch2][Branch1][=Branch1][C][=C][C][=C][Branch1][=C][C][=C][C][Branch1][C][F][=C][Branch1][C][Cr][S][Ring1][#Branch1][C][S][C][Branch1][C][C][=C][C][=Ring1][=Branch1][C][Branch1][=C][C][=C][C][Branch1][C][F][=C][Branch1][C][Cr][S][Ring1][#Branch1][=C][Ring2][Ring1][Branch2][S][Ring2][Ring1][O][S][Ring2][Ring1][S][=C][C][=Ring2][Ring2][Branch1][C][=Branch1][C][=O][C][=C][Branch1][C][Cr][S][C][Branch1][C][Cr][=C][Ring1][#Branch1][C][Ring1][N][=O][S][Ring2][Branch1][Branch1].[N][#C][C][Branch1][Ring1][C][#N][=C][/C][=Branch2][=Branch2][#C][=C][/C][=C][C][S][C][=C][Branch1][#Branch1][C][=Ring1][Branch1][S][Ring1][Branch2][C][Branch1][N][C][=C][C][=C][Branch1][C][Mo][C][=C][Ring1][#Branch1][Branch1][N][C][=C][C][=C][Branch1][C][Mo][C][=C][Ring1][#Branch1][C][=C][C][=C][Branch1][Branch2][C][=C][Ring1][=Branch1][Ring2][Ring1][=Branch2][C][Branch1][N][C][=C][C][=C][Branch1][C][Mo][C][=C][Ring1][#Branch1][Branch1][N][C][=C][C][=C][Branch1][C][Mo][C][=C][Ring1][#Branch1][C][=C][Ring2][Ring1][Branch1][S][C][C][=C][Branch2][Ring1][=Branch2][/C][=C][\C][=Branch1][C][=O][C][=C][C][=C][C][=C][Ring1][=Branch1][C][Ring1][#Branch2][=C][Branch1][Ring1][C][#N][C][#N][S][C][Ring2][Ring1][Branch2][=Ring2][Ring1][Branch1][C][=Branch1][C][=O][C][=C][C][=C][C][=C][Ring1][=Branch1][Ring2][=Branch1][#C],{[$]c1ccc(-c2sc(-c3ccc(-c4cc5c(-c6cc(F)c([Cr])s6)c6sc([$])cc6c(-c6cc(F)c([Cr])s6)c5s4)s3)c3c2C(=O)c2c([Cr])sc([Cr])c2C3=O)s1}.N#CC(C#N)=C1/C(=C/c2cc3sc4c(c3s2)C(c2ccc([Mo])cc2)(c2ccc([Mo])cc2)c2cc3c(cc2-4)C(c2ccc([Mo])cc2)(c2ccc([Mo])cc2)c2c-3sc3cc(/C=C4\C(=O)c5ccccc5C4=C(C#N)C#N)sc23)C(=O)c2ccccc21
PBDB-T,ATT-6,-5.297777777777778,-3.4170000000000003,1.7681818181818183,-1.8807777777777777,-5.45,-3.61,-1.8400000000000003,1.53,1:1,CF,_,160.0,PEDOT:PSS,PDINO,8.22,8.35549632,0.96,14.66,59.37,Cc1ccc(-c2sc(-c3ccc(-c4cc5c(-c6ccc([Cr])s6)c6sc(C)cc6c(-c6ccc([Cr])s6)c5s4)s3)c3c2C(=O)c2c([Cr])sc([Cr])c2C3=O)s1.CCn1c(=C(C#N)C#N)s/c(=C/c2sc(-c3cc4c(s3)-c3cc5c(cc3C4(c3cccc([Mo])c3)c3cccc([Mo])c3)-c3sc(-c4sc(/C=c6/sc(=C(C#N)C#N)n(CC)c6=O)c6cc(C(=O)O[Ti])sc46)cc3C5(c3cccc([Mo])c3)c3cccc([Mo])c3)c3sc(C(=O)O[Ti])cc23)c1=O,[C][C][=C][C][=C][Branch2][#Branch1][O][C][S][C][Branch2][Branch1][O][C][=C][C][=C][Branch2][Ring2][S][C][=C][C][=C][Branch1][O][C][=C][C][=C][Branch1][C][Cr][S][Ring1][=Branch1][C][S][C][Branch1][C][C][=C][C][=Ring1][=Branch1][C][Branch1][O][C][=C][C][=C][Branch1][C][Cr][S][Ring1][=Branch1][=C][Ring2][Ring1][=Branch1][S][Ring2][Ring1][=Branch2][S][Ring2][Ring1][=C][=C][C][=Ring2][Ring2][Ring1][C][=Branch1][C][=O][C][=C][Branch1][C][Cr][S][C][Branch1][C][Cr][=C][Ring1][#Branch1][C][Ring1][N][=O][S][Ring2][Branch1][Ring1].[C][C][N][C][=Branch1][Branch2][=C][Branch1][Ring1][C][#N][C][#N][S][/C][=Branch2][O][=C][=C][/C][S][C][Branch2][#Branch2][Branch1][C][=C][C][=C][Branch1][Ring2][S][Ring1][Branch1][C][=C][C][=C][Branch2][Ring1][S][C][=C][Ring1][=Branch1][C][Ring1][#Branch2][Branch1][N][C][=C][C][=C][C][Branch1][C][Mo][=C][Ring1][#Branch1][C][=C][C][=C][C][Branch1][C][Mo][=C][Ring1][#Branch1][C][S][C][Branch2][Ring2][#C][C][S][C][Branch2][Ring1][#Branch1][/C][=C][/S][C][=Branch1][Branch2][=C][Branch1][Ring1][C][#N][C][#N][N][Branch1][Ring1][C][C][C][Ring1][N][=O][=C][C][=C][Branch1][#Branch1][C][=Branch1][C][=O][O][Ti][S][C][=Ring2][Ring1][#Branch2][Ring1][=Branch2][=C][C][=Ring2][Ring1][#C][C][Ring2][Branch1][Ring1][Branch1][N][C][=C][C][=C][C][Branch1][C][Mo][=C][Ring1][#Branch1][C][=C][C][=C][C][Branch1][C][Mo][=C][Ring1][#Branch1][=C][S][C][Branch1][#Branch1][C][=Branch1][C][=O][O][Ti][=C][C][=Ring2][#Branch1][Ring2][Ring1][=Branch2][C][Ring2][#Branch1][#C][=O],{[$]c1ccc(-c2sc(-c3ccc(-c4cc5c(-c6ccc([Cr])s6)c6sc([$])cc6c(-c6ccc([Cr])s6)c5s4)s3)c3c2C(=O)c2c([Cr])sc([Cr])c2C3=O)s1}.CCn1c(=C(C#N)C#N)s/c(=C/c2sc(-c3cc4c(s3)-c3cc5c(cc3C4(c3cccc([Mo])c3)c3cccc([Mo])c3)-c3sc(-c4sc(/C=c6/sc(=C(C#N)C#N)n(CC)c6=O)c6cc(C(=O)O[Ti])sc46)cc3C5(c3cccc([Mo])c3)c3cccc([Mo])c3)c3sc(C(=O)O[Ti])cc23)c1=O
PBDB-T,ATT-7,-5.297777777777778,-3.4170000000000003,1.7681818181818183,-1.8807777777777777,-5.48,-3.66,-1.8200000000000005,1.54,1:1,CF,_,160.0,PEDOT:PSS,PDINO,10.12,10.34071701,0.97,15.99,66.67,Cc1ccc(-c2sc(-c3ccc(-c4cc5c(-c6ccc([Cr])s6)c6sc(C)cc6c(-c6ccc([Cr])s6)c5s4)s3)c3c2C(=O)c2c([Cr])sc([Cr])c2C3=O)s1.N#CC(C#N)=C1/C(=C/c2sc(-c3cc4c(s3)-c3cc5c(cc3C4(c3cccc(O[Mo])c3)c3cccc(O[Mo])c3)-c3sc(-c4sc(/C=C6\C(=O)c7ccccc7C6=C(C#N)C#N)c6cc(C(=O)O[Ti])sc46)cc3C5(c3cccc(O[Mo])c3)c3cccc(O[Mo])c3)c3sc(C(=O)O[Ti])cc23)C(=O)c2ccccc21,[C][C][=C][C][=C][Branch2][#Branch1][O][C][S][C][Branch2][Branch1][O][C][=C][C][=C][Branch2][Ring2][S][C][=C][C][=C][Branch1][O][C][=C][C][=C][Branch1][C][Cr][S][Ring1][=Branch1][C][S][C][Branch1][C][C][=C][C][=Ring1][=Branch1][C][Branch1][O][C][=C][C][=C][Branch1][C][Cr][S][Ring1][=Branch1][=C][Ring2][Ring1][=Branch1][S][Ring2][Ring1][=Branch2][S][Ring2][Ring1][=C][=C][C][=Ring2][Ring2][Ring1][C][=Branch1][C][=O][C][=C][Branch1][C][Cr][S][C][Branch1][C][Cr][=C][Ring1][#Branch1][C][Ring1][N][=O][S][Ring2][Branch1][Ring1].[N][#C][C][Branch1][Ring1][C][#N][=C][/C][=Branch2][N][Ring2][=C][/C][S][C][Branch2][#Branch2][O][C][=C][C][=C][Branch1][Ring2][S][Ring1][Branch1][C][=C][C][=C][Branch2][Ring2][C][C][=C][Ring1][=Branch1][C][Ring1][#Branch2][Branch1][=N][C][=C][C][=C][C][Branch1][Ring1][O][Mo][=C][Ring1][Branch2][C][=C][C][=C][C][Branch1][Ring1][O][Mo][=C][Ring1][Branch2][C][S][C][Branch2][Ring2][P][C][S][C][Branch2][Ring1][=Branch2][/C][=C][\C][=Branch1][C][=O][C][=C][C][=C][C][=C][Ring1][=Branch1][C][Ring1][#Branch2][=C][Branch1][Ring1][C][#N][C][#N][=C][C][=C][Branch1][#Branch1][C][=Branch1][C][=O][O][Ti][S][C][=Ring2][Ring1][N][Ring1][=Branch2][=C][C][=Ring2][Ring1][P][C][Ring2][Branch1][#Branch1][Branch1][=N][C][=C][C][=C][C][Branch1][Ring1][O][Mo][=C][Ring1][Branch2][C][=C][C][=C][C][Branch1][Ring1][O][Mo][=C][Ring1][Branch2][=C][S][C][Branch1][#Branch1][C][=Branch1][C][=O][O][Ti][=C][C][=Ring2][#Branch1][#Branch2][Ring1][=Branch2][C][=Branch1][C][=O][C][=C][C][=C][C][=C][Ring1][=Branch1][Ring2][Branch2][Branch1],{[$]c1ccc(-c2sc(-c3ccc(-c4cc5c(-c6ccc([Cr])s6)c6sc([$])cc6c(-c6ccc([Cr])s6)c5s4)s3)c3c2C(=O)c2c([Cr])sc([Cr])c2C3=O)s1}.N#CC(C#N)=C1/C(=C/c2sc(-c3cc4c(s3)-c3cc5c(cc3C4(c3cccc(O[Mo])c3)c3cccc(O[Mo])c3)-c3sc(-c4sc(/C=C6\C(=O)c7ccccc7C6=C(C#N)C#N)c6cc(C(=O)O[Ti])sc46)cc3C5(c3cccc(O[Mo])c3)c3cccc(O[Mo])c3)c3sc(C(=O)O[Ti])cc23)C(=O)c2ccccc21
PBDB-T,Y1,-5.297777777777778,-3.4170000000000003,1.7681818181818183,-1.8807777777777777,-5.45,-3.95,-1.5,1.44,1:1,CB,CN,25.0,MoOx,ZnO,13.42,13.4902548,0.87,22.44,69.1,Cc1ccc(-c2sc(-c3ccc(-c4cc5c(-c6ccc([Cr])s6)c6sc(C)cc6c(-c6ccc([Cr])s6)c5s4)s3)c3c2C(=O)c2c([Cr])sc([Cr])c2C3=O)s1.N#CC(C#N)=C1/C(=C/c2cc3sc4c5c6nn([Cr])nc6c6c7sc8cc(/C=C9\C(=O)c%10ccccc%10C9=C(C#N)C#N)sc8c7n([Cr])c6c5n([Cr])c4c3s2)C(=O)c2ccccc21,[C][C][=C][C][=C][Branch2][#Branch1][O][C][S][C][Branch2][Branch1][O][C][=C][C][=C][Branch2][Ring2][S][C][=C][C][=C][Branch1][O][C][=C][C][=C][Branch1][C][Cr][S][Ring1][=Branch1][C][S][C][Branch1][C][C][=C][C][=Ring1][=Branch1][C][Branch1][O][C][=C][C][=C][Branch1][C][Cr][S][Ring1][=Branch1][=C][Ring2][Ring1][=Branch1][S][Ring2][Ring1][=Branch2][S][Ring2][Ring1][=C][=C][C][=Ring2][Ring2][Ring1][C][=Branch1][C][=O][C][=C][Branch1][C][Cr][S][C][Branch1][C][Cr][=C][Ring1][#Branch1][C][Ring1][N][=O][S][Ring2][Branch1][Ring1].[N][#C][C][Branch1][Ring1][C][#N][=C][/C][=Branch2][#Branch1][Branch2][=C][/C][=C][C][S][C][C][C][=N][N][Branch1][C][Cr][N][=C][Ring1][=Branch1][C][C][S][C][C][=C][Branch2][Ring1][=Branch2][/C][=C][\C][=Branch1][C][=O][C][=C][C][=C][C][=C][Ring1][=Branch1][C][Ring1][#Branch2][=C][Branch1][Ring1][C][#N][C][#N][S][C][=Ring2][Ring1][Branch1][C][=Ring2][Ring1][Branch2][N][Branch1][C][Cr][C][=Ring2][Ring1][N][C][=Ring2][Ring2][Ring2][N][Branch1][C][Cr][C][=Ring2][Ring2][Branch2][C][=Ring2][Ring2][O][S][Ring2][Ring2][=C][C][=Branch1][C][=O][C][=C][C][=C][C][=C][Ring1][=Branch1][Ring2][Branch1][=Branch2],{[$]c1ccc(-c2sc(-c3ccc(-c4cc5c(-c6ccc([Cr])s6)c6sc([$])cc6c(-c6ccc([Cr])s6)c5s4)s3)c3c2C(=O)c2c([Cr])sc([Cr])c2C3=O)s1}.N#CC(C#N)=C1/C(=C/c2cc3sc4c5c6nn([Cr])nc6c6c7sc8cc(/C=C9\C(=O)c%10ccccc%10C9=C(C#N)C#N)sc8c7n([Cr])c6c5n([Cr])c4c3s2)C(=O)c2ccccc21
PBDB-T,Y2,-5.297777777777778,-3.4170000000000003,1.7681818181818183,-1.8807777777777777,-5.43,-4.04,-1.3899999999999997,1.4,1:1,CB,CN,25.0,MoOx,ZnO,13.4,13.4075248,0.82,23.56,69.4,Cc1ccc(-c2sc(-c3ccc(-c4cc5c(-c6ccc([Cr])s6)c6sc(C)cc6c(-c6ccc([Cr])s6)c5s4)s3)c3c2C(=O)c2c([Cr])sc([Cr])c2C3=O)s1.N#CC(C#N)=C1/C(=C/c2cc3sc4c5c6nn([Cr])nc6c6c7sc8cc(/C=C9\C(=O)c%10cscc%10C9=C(C#N)C#N)sc8c7n([Cr])c6c5n([Cr])c4c3s2)C(=O)c2cscc21,[C][C][=C][C][=C][Branch2][#Branch1][O][C][S][C][Branch2][Branch1][O][C][=C][C][=C][Branch2][Ring2][S][C][=C][C][=C][Branch1][O][C][=C][C][=C][Branch1][C][Cr][S][Ring1][=Branch1][C][S][C][Branch1][C][C][=C][C][=Ring1][=Branch1][C][Branch1][O][C][=C][C][=C][Branch1][C][Cr][S][Ring1][=Branch1][=C][Ring2][Ring1][=Branch1][S][Ring2][Ring1][=Branch2][S][Ring2][Ring1][=C][=C][C][=Ring2][Ring2][Ring1][C][=Branch1][C][=O][C][=C][Branch1][C][Cr][S][C][Branch1][C][Cr][=C][Ring1][#Branch1][C][Ring1][N][=O][S][Ring2][Branch1][Ring1].[N][#C][C][Branch1][Ring1][C][#N][=C][/C][=Branch2][#Branch1][#Branch1][=C][/C][=C][C][S][C][C][C][=N][N][Branch1][C][Cr][N][=C][Ring1][=Branch1][C][C][S][C][C][=C][Branch2][Ring1][Branch2][/C][=C][\C][=Branch1][C][=O][C][=C][S][C][=C][Ring1][Branch1][C][Ring1][=Branch2][=C][Branch1][Ring1][C][#N][C][#N][S][C][=Ring2][Ring1][Ring2][C][=Ring2][Ring1][#Branch1][N][Branch1][C][Cr][C][=Ring2][Ring1][O][C][=Ring2][Ring2][Ring1][N][Branch1][C][Cr][C][=Ring2][Ring2][#Branch1][C][=Ring2][Ring2][#Branch2][S][Ring2][Ring2][=N][C][=Branch1][C][=O][C][=C][S][C][=C][Ring1][Branch1][Ring2][Branch1][#Branch1],{[$]c1ccc(-c2sc(-c3ccc(-c4cc5c(-c6ccc([Cr])s6)c6sc([$])cc6c(-c6ccc([Cr])s6)c5s4)s3)c3c2C(=O)c2c([Cr])sc([Cr])c2C3=O)s1}.N#CC(C#N)=C1/C(=C/c2cc3sc4c5c6nn([Cr])nc6c6c7sc8cc(/C=C9\C(=O)c%10cscc%10C9=C(C#N)C#N)sc8c7n([Cr])c6c5n([Cr])c4c3s2)C(=O)c2cscc21
PBDB-T,BDTS-4Cl,-5.297777777777778,-3.4170000000000003,1.7681818181818183,-1.8807777777777777,-5.45,-3.82,-1.6300000000000003,1.46,1:1,CF,_,25.0,PEDOT:PSS,PDINO,3.73,3.733506,0.83,9.8,45.9,Cc1ccc(-c2sc(-c3ccc(-c4cc5c(-c6ccc([Cr])s6)c6sc(C)cc6c(-c6ccc([Cr])s6)c5s4)s3)c3c2C(=O)c2c([Cr])sc([Cr])c2C3=O)s1.N#CC(C#N)=C1/C(=C/c2cc3c(s2)-c2sc(-c4cc5c(-c6ccc([Cr])s6)c6sc(-c7cc8c(s7)-c7sc(/C=C9\C(=O)c%10cc(Cl)c(Cl)cc%10C9=C(C#N)C#N)cc7[Si]8([Ti])[Ti])cc6c(-c6ccc([Cr])s6)c5s4)cc2[Si]3([Ti])[Ti])C(=O)c2cc(Cl)c(Cl)cc21,[C][C][=C][C][=C][Branch2][#Branch1][O][C][S][C][Branch2][Branch1][O][C][=C][C][=C][Branch2][Ring2][S][C][=C][C][=C][Branch1][O][C][=C][C][=C][Branch1][C][Cr][S][Ring1][=Branch1][C][S][C][Branch1][C][C][=C][C][=Ring1][=Branch1][C][Branch1][O][C][=C][C][=C][Branch1][C][Cr][S][Ring1][=Branch1][=C][Ring2][Ring1][=Branch1][S][Ring2][Ring1][=Branch2][S][Ring2][Ring1][=C][=C][C][=Ring2][Ring2][Ring1][C][=Branch1][C][=O][C][=C][Branch1][C][Cr][S][C][Branch1][C][Cr][=C][Ring1][#Branch1][C][Ring1][N][=O][S][Ring2][Branch1][Ring1].[N][#C][C][Branch1][Ring1][C][#N][=C][/C][=Branch2][#Branch2][Branch2][=C][/C][=C][C][=C][Branch1][Ring2][S][Ring1][Branch1][C][S][C][Branch2][Branch2][O][C][=C][C][=C][Branch1][O][C][=C][C][=C][Branch1][C][Cr][S][Ring1][=Branch1][C][S][C][Branch2][Branch1][O][C][=C][C][=C][Branch1][Ring2][S][Ring1][Branch1][C][S][C][Branch2][Ring1][#C][/C][=C][\C][=Branch1][C][=O][C][=C][C][Branch1][C][Cl][=C][Branch1][C][Cl][C][=C][Ring1][Branch2][C][Ring1][N][=C][Branch1][Ring1][C][#N][C][#N][=C][C][=Ring2][Ring1][#Branch1][Si][Ring2][Ring1][O][Branch1][C][Ti][Ti][=C][C][=Ring2][Ring2][Ring2][C][Branch1][O][C][=C][C][=C][Branch1][C][Cr][S][Ring1][=Branch1][=C][Ring2][Branch1][Ring2][S][Ring2][Branch1][#Branch1][=C][C][=Ring2][Branch1][N][Si][Ring2][Branch1][S][Branch1][C][Ti][Ti][C][=Branch1][C][=O][C][=C][C][Branch1][C][Cl][=C][Branch1][C][Cl][C][=C][Ring1][Branch2][Ring2][=Branch1][P],{[$]c1ccc(-c2sc(-c3ccc(-c4cc5c(-c6ccc([Cr])s6)c6sc([$])cc6c(-c6ccc([Cr])s6)c5s4)s3)c3c2C(=O)c2c([Cr])sc([Cr])c2C3=O)s1}.N#CC(C#N)=C1/C(=C/c2cc3c(s2)-c2sc(-c4cc5c(-c6ccc([Cr])s6)c6sc(-c7cc8c(s7)-c7sc(/C=C9\C(=O)c%10cc(Cl)c(Cl)cc%10C9=C(C#N)C#N)cc7[Si]8([Ti])[Ti])cc6c(-c6ccc([Cr])s6)c5s4)cc2[Si]3([Ti])[Ti])C(=O)c2cc(Cl)c(Cl)cc21