Donor,Acceptor,HOMO_D_eV,LUMO_D_eV,HOMO_A_eV,LUMO_A_eV,D_A_ratio_m_m,solvent,solvent_additive,annealing_temperature,hole_contact_layer,electron_contact_layer,PCE_percent,calc_PCE_percent,Voc_V,Jsc_mA_cm_pow_neg2,FF_percent,DA_SMILES,DA_SELFIES,DA_BigSMILES
PBDT(T)[2F]T,ITIC,-5.22,-3.22,-5.574146341463415,-3.915,1.0,CB,_,160.0,MoOx,ZnO,9.8,9.85,0.94,16.9,62.0,CCCCC(CC)Cc1ccc(-c2c3cc(-c4sc(C)c(F)c4F)sc3c(-c3ccc(CC(CC)CCCC)s3)c3cc(C)sc23)s1.CCCCCCc1ccc(C2(c3ccc(CCCCCC)cc3)c3cc4c(cc3-c3sc5cc(/C=C6\C(=O)c7ccccc7C6=C(C#N)C#N)sc5c32)C(c2ccc(CCCCCC)cc2)(c2ccc(CCCCCC)cc2)c2c-4sc3cc(/C=C4\C(=O)c5ccccc5C4=C(C#N)C#N)sc23)cc1,[C][C][C][C][C][Branch1][Ring1][C][C][C][C][=C][C][=C][Branch2][Branch1][=N][C][=C][C][=C][Branch1][#C][C][S][C][Branch1][C][C][=C][Branch1][C][F][C][=Ring1][#Branch1][F][S][C][Ring1][=N][=C][Branch2][Ring1][Ring2][C][=C][C][=C][Branch1][O][C][C][Branch1][Ring1][C][C][C][C][C][C][S][Ring1][=N][C][C][=C][Branch1][C][C][S][C][Ring2][Ring2][C][=Ring1][=Branch1][S][Ring2][Ring2][#Branch1].[C][C][C][C][C][C][C][=C][C][=C][Branch2][O][N][C][Branch1][P][C][=C][C][=C][Branch1][#Branch1][C][C][C][C][C][C][C][=C][Ring1][N][C][=C][C][=C][Branch2][Ring2][P][C][=C][Ring1][=Branch1][C][S][C][C][=C][Branch2][Ring1][=Branch2][/C][=C][\C][=Branch1][C][=O][C][=C][C][=C][C][=C][Ring1][=Branch1][C][Ring1][#Branch2][=C][Branch1][Ring1][C][#N][C][#N][S][C][=Ring2][Ring1][Branch1][C][=Ring2][Ring1][Branch2][Ring2][Ring2][O][C][Branch1][P][C][=C][C][=C][Branch1][#Branch1][C][C][C][C][C][C][C][=C][Ring1][N][Branch1][P][C][=C][C][=C][Branch1][#Branch1][C][C][C][C][C][C][C][=C][Ring1][N][C][=C][Ring2][Branch1][#Branch1][S][C][C][=C][Branch2][Ring1][=Branch2][/C][=C][\C][=Branch1][C][=O][C][=C][C][=C][C][=C][Ring1][=Branch1][C][Ring1][#Branch2][=C][Branch1][Ring1][C][#N][C][#N][S][C][Ring2][Ring1][Branch2][=Ring2][Ring1][Branch1][C][=C][Ring2][Branch2][C],{CCCCC(CC)Cc1ccc(-c2c3cc(-c4sc([$])c(F)c4F)sc3c(-c3ccc(CC(CC)CCCC)s3)c3cc([$])sc23)s1}.CCCCCCc1ccc(C2(c3ccc(CCCCCC)cc3)c3cc4c(cc3-c3sc5cc(/C=C6\C(=O)c7ccccc7C6=C(C#N)C#N)sc5c32)C(c2ccc(CCCCCC)cc2)(c2ccc(CCCCCC)cc2)c2c-4sc3cc(/C=C4\C(=O)c5ccccc5C4=C(C#N)C#N)sc23)cc1
PBDT[2H]T,ITIC,-5.03,-2.93,-5.574146341463415,-3.915,1.0,CB,_,160.0,MoOx,ZnO,2.5,2.46,0.79,7.6,41.0,CCCCC(CC)COc1c2cc(-c3ccc(C)s3)sc2c(OCC(CC)CCCC)c2cc(C)sc12.CCCCCCc1ccc(C2(c3ccc(CCCCCC)cc3)c3cc4c(cc3-c3sc5cc(/C=C6\C(=O)c7ccccc7C6=C(C#N)C#N)sc5c32)C(c2ccc(CCCCCC)cc2)(c2ccc(CCCCCC)cc2)c2c-4sc3cc(/C=C4\C(=O)c5ccccc5C4=C(C#N)C#N)sc23)cc1,[C][C][C][C][C][Branch1][Ring1][C][C][C][O][C][=C][C][=C][Branch1][O][C][=C][C][=C][Branch1][C][C][S][Ring1][=Branch1][S][C][Ring1][O][=C][Branch1][N][O][C][C][Branch1][Ring1][C][C][C][C][C][C][C][C][=C][Branch1][C][C][S][C][Ring2][Ring1][N][=Ring1][=Branch1].[C][C][C][C][C][C][C][=C][C][=C][Branch2][O][N][C][Branch1][P][C][=C][C][=C][Branch1][#Branch1][C][C][C][C][C][C][C][=C][Ring1][N][C][=C][C][=C][Branch2][Ring2][P][C][=C][Ring1][=Branch1][C][S][C][C][=C][Branch2][Ring1][=Branch2][/C][=C][\C][=Branch1][C][=O][C][=C][C][=C][C][=C][Ring1][=Branch1][C][Ring1][#Branch2][=C][Branch1][Ring1][C][#N][C][#N][S][C][=Ring2][Ring1][Branch1][C][=Ring2][Ring1][Branch2][Ring2][Ring2][O][C][Branch1][P][C][=C][C][=C][Branch1][#Branch1][C][C][C][C][C][C][C][=C][Ring1][N][Branch1][P][C][=C][C][=C][Branch1][#Branch1][C][C][C][C][C][C][C][=C][Ring1][N][C][=C][Ring2][Branch1][#Branch1][S][C][C][=C][Branch2][Ring1][=Branch2][/C][=C][\C][=Branch1][C][=O][C][=C][C][=C][C][=C][Ring1][=Branch1][C][Ring1][#Branch2][=C][Branch1][Ring1][C][#N][C][#N][S][C][Ring2][Ring1][Branch2][=Ring2][Ring1][Branch1][C][=C][Ring2][Branch2][C],{CCCCC(CC)COc1c2cc(-c3ccc([$])s3)sc2c(OCC(CC)CCCC)c2cc([$])sc12}.CCCCCCc1ccc(C2(c3ccc(CCCCCC)cc3)c3cc4c(cc3-c3sc5cc(/C=C6\C(=O)c7ccccc7C6=C(C#N)C#N)sc5c32)C(c2ccc(CCCCCC)cc2)(c2ccc(CCCCCC)cc2)c2c-4sc3cc(/C=C4\C(=O)c5ccccc5C4=C(C#N)C#N)sc23)cc1
PBDT-2TC,ITIC,-5.43,-3.57,-5.574146341463415,-3.915,1.0,CB,_,120.0,PEDOT:PSS,C60-bissalt,9.35,9.35,0.93,15.3,65.7,CCCCCCC(CCCC)CSOC(=O)c1cc(-c2cc3c(-c4ccc(CC(CC)CCCC)s4)c4sc(C)cc4c(-c4ccc(CC(CC)CCCC)s4)c3s2)sc1-c1ccc(C)s1.CCCCCCc1ccc(C2(c3ccc(CCCCCC)cc3)c3cc4c(cc3-c3sc5cc(/C=C6\C(=O)c7ccccc7C6=C(C#N)C#N)sc5c32)C(c2ccc(CCCCCC)cc2)(c2ccc(CCCCCC)cc2)c2c-4sc3cc(/C=C4\C(=O)c5ccccc5C4=C(C#N)C#N)sc23)cc1,[C][C][C][C][C][C][C][Branch1][Branch1][C][C][C][C][C][S][O][C][=Branch1][C][=O][C][C][=C][Branch2][=Branch1][Ring2][C][=C][C][=C][Branch2][Ring1][Ring2][C][=C][C][=C][Branch1][O][C][C][Branch1][Ring1][C][C][C][C][C][C][S][Ring1][=N][C][S][C][Branch1][C][C][=C][C][=Ring1][=Branch1][C][Branch2][Ring1][Ring2][C][=C][C][=C][Branch1][O][C][C][Branch1][Ring1][C][C][C][C][C][C][S][Ring1][=N][=C][Ring2][Ring2][Ring2][S][Ring2][Ring2][#Branch1][S][C][=Ring2][Ring2][N][C][=C][C][=C][Branch1][C][C][S][Ring1][=Branch1].[C][C][C][C][C][C][C][=C][C][=C][Branch2][O][N][C][Branch1][P][C][=C][C][=C][Branch1][#Branch1][C][C][C][C][C][C][C][=C][Ring1][N][C][=C][C][=C][Branch2][Ring2][P][C][=C][Ring1][=Branch1][C][S][C][C][=C][Branch2][Ring1][=Branch2][/C][=C][\C][=Branch1][C][=O][C][=C][C][=C][C][=C][Ring1][=Branch1][C][Ring1][#Branch2][=C][Branch1][Ring1][C][#N][C][#N][S][C][=Ring2][Ring1][Branch1][C][=Ring2][Ring1][Branch2][Ring2][Ring2][O][C][Branch1][P][C][=C][C][=C][Branch1][#Branch1][C][C][C][C][C][C][C][=C][Ring1][N][Branch1][P][C][=C][C][=C][Branch1][#Branch1][C][C][C][C][C][C][C][=C][Ring1][N][C][=C][Ring2][Branch1][#Branch1][S][C][C][=C][Branch2][Ring1][=Branch2][/C][=C][\C][=Branch1][C][=O][C][=C][C][=C][C][=C][Ring1][=Branch1][C][Ring1][#Branch2][=C][Branch1][Ring1][C][#N][C][#N][S][C][Ring2][Ring1][Branch2][=Ring2][Ring1][Branch1][C][=C][Ring2][Branch2][C],{CCCCCCC(CCCC)CSOC(=O)c1cc(-c2cc3c(-c4ccc(CC(CC)CCCC)s4)c4sc([$])cc4c(-c4ccc(CC(CC)CCCC)s4)c3s2)sc1-c1ccc([$])s1}.CCCCCCc1ccc(C2(c3ccc(CCCCCC)cc3)c3cc4c(cc3-c3sc5cc(/C=C6\C(=O)c7ccccc7C6=C(C#N)C#N)sc5c32)C(c2ccc(CCCCCC)cc2)(c2ccc(CCCCCC)cc2)c2c-4sc3cc(/C=C4\C(=O)c5ccccc5C4=C(C#N)C#N)sc23)cc1
PBDT-S-2TC,ITIC,-5.47,-3.58,-5.574146341463415,-3.915,1.0,CB,_,120.0,PEDOT:PSS,C60-bissalt,10.12,10.12,0.96,16.4,64.3,CCCCCCC(CCCC)CSOC(=O)c1cc(-c2cc3c(-c4ccc(SCC(CC)CCCC)s4)c4sc(C)cc4c(-c4ccc(SCC(CC)CCCC)s4)c3s2)sc1-c1ccc(C)s1.CCCCCCc1ccc(C2(c3ccc(CCCCCC)cc3)c3cc4c(cc3-c3sc5cc(/C=C6\C(=O)c7ccccc7C6=C(C#N)C#N)sc5c32)C(c2ccc(CCCCCC)cc2)(c2ccc(CCCCCC)cc2)c2c-4sc3cc(/C=C4\C(=O)c5ccccc5C4=C(C#N)C#N)sc23)cc1,[C][C][C][C][C][C][C][Branch1][Branch1][C][C][C][C][C][S][O][C][=Branch1][C][=O][C][C][=C][Branch2][=Branch1][=Branch1][C][=C][C][=C][Branch2][Ring1][Branch1][C][=C][C][=C][Branch1][N][S][C][C][Branch1][Ring1][C][C][C][C][C][C][S][Ring1][=C][C][S][C][Branch1][C][C][=C][C][=Ring1][=Branch1][C][Branch2][Ring1][Branch1][C][=C][C][=C][Branch1][N][S][C][C][Branch1][Ring1][C][C][C][C][C][C][S][Ring1][=C][=C][Ring2][Ring2][=Branch1][S][Ring2][Ring2][=Branch2][S][C][=Ring2][Ring2][=C][C][=C][C][=C][Branch1][C][C][S][Ring1][=Branch1].[C][C][C][C][C][C][C][=C][C][=C][Branch2][O][N][C][Branch1][P][C][=C][C][=C][Branch1][#Branch1][C][C][C][C][C][C][C][=C][Ring1][N][C][=C][C][=C][Branch2][Ring2][P][C][=C][Ring1][=Branch1][C][S][C][C][=C][Branch2][Ring1][=Branch2][/C][=C][\C][=Branch1][C][=O][C][=C][C][=C][C][=C][Ring1][=Branch1][C][Ring1][#Branch2][=C][Branch1][Ring1][C][#N][C][#N][S][C][=Ring2][Ring1][Branch1][C][=Ring2][Ring1][Branch2][Ring2][Ring2][O][C][Branch1][P][C][=C][C][=C][Branch1][#Branch1][C][C][C][C][C][C][C][=C][Ring1][N][Branch1][P][C][=C][C][=C][Branch1][#Branch1][C][C][C][C][C][C][C][=C][Ring1][N][C][=C][Ring2][Branch1][#Branch1][S][C][C][=C][Branch2][Ring1][=Branch2][/C][=C][\C][=Branch1][C][=O][C][=C][C][=C][C][=C][Ring1][=Branch1][C][Ring1][#Branch2][=C][Branch1][Ring1][C][#N][C][#N][S][C][Ring2][Ring1][Branch2][=Ring2][Ring1][Branch1][C][=C][Ring2][Branch2][C],{CCCCCCC(CCCC)CSOC(=O)c1cc(-c2cc3c(-c4ccc(SCC(CC)CCCC)s4)c4sc([$])cc4c(-c4ccc(SCC(CC)CCCC)s4)c3s2)sc1-c1ccc([$])s1}.CCCCCCc1ccc(C2(c3ccc(CCCCCC)cc3)c3cc4c(cc3-c3sc5cc(/C=C6\C(=O)c7ccccc7C6=C(C#N)C#N)sc5c32)C(c2ccc(CCCCCC)cc2)(c2ccc(CCCCCC)cc2)c2c-4sc3cc(/C=C4\C(=O)c5ccccc5C4=C(C#N)C#N)sc23)cc1
PBDT-DTN,ITIC,-5.37,-3.53,-5.574146341463415,-3.915,0.667,CF,DPE,25.0,PEDOT:PSS,Ca,8.3,8.25,0.92,13.8,65.0,CCCCC(CC)Cc1ccc(-c2c3cc(-c4sc(-c5sc(-c6cc(CC(CC)CCCC)c(C)s6)c6c5C(=O)c5ccccc5C6=O)cc4CC(CC)CCCC)sc3c(-c3ccc(CC(CC)CCCC)s3)c3cc(C)sc23)s1.CCCCCCc1ccc(C2(c3ccc(CCCCCC)cc3)c3cc4c(cc3-c3sc5cc(/C=C6\C(=O)c7ccccc7C6=C(C#N)C#N)sc5c32)C(c2ccc(CCCCCC)cc2)(c2ccc(CCCCCC)cc2)c2c-4sc3cc(/C=C4\C(=O)c5ccccc5C4=C(C#N)C#N)sc23)cc1,[C][C][C][C][C][Branch1][Ring1][C][C][C][C][=C][C][=C][Branch2][=Branch2][#Branch1][C][=C][C][=C][Branch2][=Branch1][#Branch1][C][S][C][Branch2][Branch1][C][C][S][C][Branch2][Ring1][#Branch1][C][=C][C][Branch1][O][C][C][Branch1][Ring1][C][C][C][C][C][C][=C][Branch1][C][C][S][Ring1][=C][=C][C][=Ring2][Ring1][Ring1][C][=Branch1][C][=O][C][=C][C][=C][C][=C][Ring1][=Branch1][C][Ring1][O][=O][=C][C][=Ring2][Ring2][C][C][C][Branch1][Ring1][C][C][C][C][C][C][S][C][Ring2][Ring2][#C][=C][Branch2][Ring1][Ring2][C][=C][C][=C][Branch1][O][C][C][Branch1][Ring1][C][C][C][C][C][C][S][Ring1][=N][C][C][=C][Branch1][C][C][S][C][Ring2][=Branch1][Ring2][=Ring1][=Branch1][S][Ring2][=Branch1][=Branch2].[C][C][C][C][C][C][C][=C][C][=C][Branch2][O][N][C][Branch1][P][C][=C][C][=C][Branch1][#Branch1][C][C][C][C][C][C][C][=C][Ring1][N][C][=C][C][=C][Branch2][Ring2][P][C][=C][Ring1][=Branch1][C][S][C][C][=C][Branch2][Ring1][=Branch2][/C][=C][\C][=Branch1][C][=O][C][=C][C][=C][C][=C][Ring1][=Branch1][C][Ring1][#Branch2][=C][Branch1][Ring1][C][#N][C][#N][S][C][=Ring2][Ring1][Branch1][C][=Ring2][Ring1][Branch2][Ring2][Ring2][O][C][Branch1][P][C][=C][C][=C][Branch1][#Branch1][C][C][C][C][C][C][C][=C][Ring1][N][Branch1][P][C][=C][C][=C][Branch1][#Branch1][C][C][C][C][C][C][C][=C][Ring1][N][C][=C][Ring2][Branch1][#Branch1][S][C][C][=C][Branch2][Ring1][=Branch2][/C][=C][\C][=Branch1][C][=O][C][=C][C][=C][C][=C][Ring1][=Branch1][C][Ring1][#Branch2][=C][Branch1][Ring1][C][#N][C][#N][S][C][Ring2][Ring1][Branch2][=Ring2][Ring1][Branch1][C][=C][Ring2][Branch2][C],{CCCCC(CC)Cc1ccc(-c2c3cc(-c4sc(-c5sc(-c6cc(CC(CC)CCCC)c([$])s6)c6c5C(=O)c5ccccc5C6=O)cc4CC(CC)CCCC)sc3c(-c3ccc(CC(CC)CCCC)s3)c3cc([$])sc23)s1}.CCCCCCc1ccc(C2(c3ccc(CCCCCC)cc3)c3cc4c(cc3-c3sc5cc(/C=C6\C(=O)c7ccccc7C6=C(C#N)C#N)sc5c32)C(c2ccc(CCCCCC)cc2)(c2ccc(CCCCCC)cc2)c2c-4sc3cc(/C=C4\C(=O)c5ccccc5C4=C(C#N)C#N)sc23)cc1
PBDT-FBT,ITIC,-5.14,-3.35,-5.574146341463415,-3.915,1.0,CB,DIO,25.0,MoOx,ZnO,7.15,7.18,0.82,13.73,63.8,CCCCCCCCc1cc(-c2c(F)c(F)c(-c3cc(CCCCCCCC)c(-c4cc5c(-c6ccc(SCC(CCCC)CCCCCC)s6)c6sc(C)cc6c(-c6ccc(SCC(CCCC)CCCCCC)s6)c5s4)s3)c3nsnc23)sc1C.CCCCCCc1ccc(C2(c3ccc(CCCCCC)cc3)c3cc4c(cc3-c3sc5cc(/C=C6\C(=O)c7ccccc7C6=C(C#N)C#N)sc5c32)C(c2ccc(CCCCCC)cc2)(c2ccc(CCCCCC)cc2)c2c-4sc3cc(/C=C4\C(=O)c5ccccc5C4=C(C#N)C#N)sc23)cc1,[C][C][C][C][C][C][C][C][C][C][=C][Branch2][=Branch2][N][C][=C][Branch1][C][F][C][Branch1][C][F][=C][Branch2][Branch2][Branch1][C][=C][C][Branch1][=Branch2][C][C][C][C][C][C][C][C][=C][Branch2][=Branch1][S][C][=C][C][=C][Branch2][Ring1][#Branch2][C][=C][C][=C][Branch1][S][S][C][C][Branch1][Branch1][C][C][C][C][C][C][C][C][C][C][S][Ring2][Ring1][C][C][S][C][Branch1][C][C][=C][C][=Ring1][=Branch1][C][Branch2][Ring1][#Branch2][C][=C][C][=C][Branch1][S][S][C][C][Branch1][Branch1][C][C][C][C][C][C][C][C][C][C][S][Ring2][Ring1][C][=C][Ring2][Ring2][=C][S][Ring2][Ring2][P][S][Ring2][Branch1][=C][C][=N][S][N][=C][Ring2][=Branch1][=Branch2][Ring1][Branch1][S][C][=Ring2][=Branch1][=C][C].[C][C][C][C][C][C][C][=C][C][=C][Branch2][O][N][C][Branch1][P][C][=C][C][=C][Branch1][#Branch1][C][C][C][C][C][C][C][=C][Ring1][N][C][=C][C][=C][Branch2][Ring2][P][C][=C][Ring1][=Branch1][C][S][C][C][=C][Branch2][Ring1][=Branch2][/C][=C][\C][=Branch1][C][=O][C][=C][C][=C][C][=C][Ring1][=Branch1][C][Ring1][#Branch2][=C][Branch1][Ring1][C][#N][C][#N][S][C][=Ring2][Ring1][Branch1][C][=Ring2][Ring1][Branch2][Ring2][Ring2][O][C][Branch1][P][C][=C][C][=C][Branch1][#Branch1][C][C][C][C][C][C][C][=C][Ring1][N][Branch1][P][C][=C][C][=C][Branch1][#Branch1][C][C][C][C][C][C][C][=C][Ring1][N][C][=C][Ring2][Branch1][#Branch1][S][C][C][=C][Branch2][Ring1][=Branch2][/C][=C][\C][=Branch1][C][=O][C][=C][C][=C][C][=C][Ring1][=Branch1][C][Ring1][#Branch2][=C][Branch1][Ring1][C][#N][C][#N][S][C][Ring2][Ring1][Branch2][=Ring2][Ring1][Branch1][C][=C][Ring2][Branch2][C],{CCCCCCCCc1cc(-c2c(F)c(F)c(-c3cc(CCCCCCCC)c(-c4cc5c(-c6ccc(SCC(CCCC)CCCCCC)s6)c6sc([$])cc6c(-c6ccc(SCC(CCCC)CCCCCC)s6)c5s4)s3)c3nsnc23)sc1[$]}.CCCCCCc1ccc(C2(c3ccc(CCCCCC)cc3)c3cc4c(cc3-c3sc5cc(/C=C6\C(=O)c7ccccc7C6=C(C#N)C#N)sc5c32)C(c2ccc(CCCCCC)cc2)(c2ccc(CCCCCC)cc2)c2c-4sc3cc(/C=C4\C(=O)c5ccccc5C4=C(C#N)C#N)sc23)cc1
PBDTF-FBT,ITIC,-5.34,-3.53,-5.574146341463415,-3.915,1.0,CB,DIO,25.0,MoOx,ZnO,9.17,9.18,0.9,15.38,66.3,CCCCCCCCc1cc(-c2c(F)c(F)c(-c3cc(CCCCCCCC)c(-c4cc5c(-c6cc(F)c(S)s6)c6sc(C)cc6c(-c6cc(F)c(SCC(CCCC)CCCCCC)s6)c5s4)s3)c3nsnc23)sc1C.CCCCCCc1ccc(C2(c3ccc(CCCCCC)cc3)c3cc4c(cc3-c3sc5cc(/C=C6\C(=O)c7ccccc7C6=C(C#N)C#N)sc5c32)C(c2ccc(CCCCCC)cc2)(c2ccc(CCCCCC)cc2)c2c-4sc3cc(/C=C4\C(=O)c5ccccc5C4=C(C#N)C#N)sc23)cc1,[C][C][C][C][C][C][C][C][C][C][=C][Branch2][=Branch2][C][C][=C][Branch1][C][F][C][Branch1][C][F][=C][Branch2][#Branch1][O][C][=C][C][Branch1][=Branch2][C][C][C][C][C][C][C][C][=C][Branch2][=Branch1][=Branch1][C][=C][C][=C][Branch1][=C][C][=C][C][Branch1][C][F][=C][Branch1][C][S][S][Ring1][#Branch1][C][S][C][Branch1][C][C][=C][C][=Ring1][=Branch1][C][Branch2][Ring1][=N][C][=C][C][Branch1][C][F][=C][Branch1][S][S][C][C][Branch1][Branch1][C][C][C][C][C][C][C][C][C][C][S][Ring2][Ring1][Ring1][=C][Ring2][Ring2][Ring2][S][Ring2][Ring2][#Branch1][S][Ring2][Branch1][Ring2][C][=N][S][N][=C][Ring2][Branch1][#C][Ring1][Branch1][S][C][=Ring2][=Branch1][Ring2][C].[C][C][C][C][C][C][C][=C][C][=C][Branch2][O][N][C][Branch1][P][C][=C][C][=C][Branch1][#Branch1][C][C][C][C][C][C][C][=C][Ring1][N][C][=C][C][=C][Branch2][Ring2][P][C][=C][Ring1][=Branch1][C][S][C][C][=C][Branch2][Ring1][=Branch2][/C][=C][\C][=Branch1][C][=O][C][=C][C][=C][C][=C][Ring1][=Branch1][C][Ring1][#Branch2][=C][Branch1][Ring1][C][#N][C][#N][S][C][=Ring2][Ring1][Branch1][C][=Ring2][Ring1][Branch2][Ring2][Ring2][O][C][Branch1][P][C][=C][C][=C][Branch1][#Branch1][C][C][C][C][C][C][C][=C][Ring1][N][Branch1][P][C][=C][C][=C][Branch1][#Branch1][C][C][C][C][C][C][C][=C][Ring1][N][C][=C][Ring2][Branch1][#Branch1][S][C][C][=C][Branch2][Ring1][=Branch2][/C][=C][\C][=Branch1][C][=O][C][=C][C][=C][C][=C][Ring1][=Branch1][C][Ring1][#Branch2][=C][Branch1][Ring1][C][#N][C][#N][S][C][Ring2][Ring1][Branch2][=Ring2][Ring1][Branch1][C][=C][Ring2][Branch2][C],{CCCCCCCCc1cc(-c2c(F)c(F)c(-c3cc(CCCCCCCC)c(-c4cc5c(-c6cc(F)c(S)s6)c6sc([$])cc6c(-c6cc(F)c(SCC(CCCC)CCCCCC)s6)c5s4)s3)c3nsnc23)sc1[$]}.CCCCCCc1ccc(C2(c3ccc(CCCCCC)cc3)c3cc4c(cc3-c3sc5cc(/C=C6\C(=O)c7ccccc7C6=C(C#N)C#N)sc5c32)C(c2ccc(CCCCCC)cc2)(c2ccc(CCCCCC)cc2)c2c-4sc3cc(/C=C4\C(=O)c5ccccc5C4=C(C#N)C#N)sc23)cc1
PBDTS-FBT,ITIC,-5.2,-3.4,-5.574146341463415,-3.915,1.0,CB,DIO,25.0,MoOx,ZnO,8.58,8.58,0.89,14.63,65.9,CCCCCCCCc1cc(-c2c(F)c(F)c(-c3cc(CCCCCCCC)c(-c4cc5c(-c6ccc(SSCC(CCCC)CCCCCC)s6)c6sc(C)cc6c(-c6ccc(SSCC(CCCC)CCCCCC)s6)c5s4)s3)c3nsnc23)sc1C.CCCCCCc1ccc(C2(c3ccc(CCCCCC)cc3)c3cc4c(cc3-c3sc5cc(/C=C6\C(=O)c7ccccc7C6=C(C#N)C#N)sc5c32)C(c2ccc(CCCCCC)cc2)(c2ccc(CCCCCC)cc2)c2c-4sc3cc(/C=C4\C(=O)c5ccccc5C4=C(C#N)C#N)sc23)cc1,[C][C][C][C][C][C][C][C][C][C][=C][Branch2][=Branch2][=C][C][=C][Branch1][C][F][C][Branch1][C][F][=C][Branch2][Branch2][#Branch1][C][=C][C][Branch1][=Branch2][C][C][C][C][C][C][C][C][=C][Branch2][#Branch1][C][C][=C][C][=C][Branch2][Ring1][O][C][=C][C][=C][Branch1][P][S][S][C][C][Branch1][Branch1][C][C][C][C][C][C][C][C][C][C][S][Ring2][Ring1][Ring1][C][S][C][Branch1][C][C][=C][C][=Ring1][=Branch1][C][Branch2][Ring1][O][C][=C][C][=C][Branch1][P][S][S][C][C][Branch1][Branch1][C][C][C][C][C][C][C][C][C][C][S][Ring2][Ring1][Ring1][=C][Ring2][Ring2][S][S][Ring2][Branch1][Ring1][S][Ring2][Branch1][S][C][=N][S][N][=C][Ring2][=Branch1][O][Ring1][Branch1][S][C][=Ring2][=Branch1][S][C].[C][C][C][C][C][C][C][=C][C][=C][Branch2][O][N][C][Branch1][P][C][=C][C][=C][Branch1][#Branch1][C][C][C][C][C][C][C][=C][Ring1][N][C][=C][C][=C][Branch2][Ring2][P][C][=C][Ring1][=Branch1][C][S][C][C][=C][Branch2][Ring1][=Branch2][/C][=C][\C][=Branch1][C][=O][C][=C][C][=C][C][=C][Ring1][=Branch1][C][Ring1][#Branch2][=C][Branch1][Ring1][C][#N][C][#N][S][C][=Ring2][Ring1][Branch1][C][=Ring2][Ring1][Branch2][Ring2][Ring2][O][C][Branch1][P][C][=C][C][=C][Branch1][#Branch1][C][C][C][C][C][C][C][=C][Ring1][N][Branch1][P][C][=C][C][=C][Branch1][#Branch1][C][C][C][C][C][C][C][=C][Ring1][N][C][=C][Ring2][Branch1][#Branch1][S][C][C][=C][Branch2][Ring1][=Branch2][/C][=C][\C][=Branch1][C][=O][C][=C][C][=C][C][=C][Ring1][=Branch1][C][Ring1][#Branch2][=C][Branch1][Ring1][C][#N][C][#N][S][C][Ring2][Ring1][Branch2][=Ring2][Ring1][Branch1][C][=C][Ring2][Branch2][C],{CCCCCCCCc1cc(-c2c(F)c(F)c(-c3cc(CCCCCCCC)c(-c4cc5c(-c6ccc(SSCC(CCCC)CCCCCC)s6)c6sc([$])cc6c(-c6ccc(SSCC(CCCC)CCCCCC)s6)c5s4)s3)c3nsnc23)sc1[$]}.CCCCCCc1ccc(C2(c3ccc(CCCCCC)cc3)c3cc4c(cc3-c3sc5cc(/C=C6\C(=O)c7ccccc7C6=C(C#N)C#N)sc5c32)C(c2ccc(CCCCCC)cc2)(c2ccc(CCCCCC)cc2)c2c-4sc3cc(/C=C4\C(=O)c5ccccc5C4=C(C#N)C#N)sc23)cc1
PBDTSF-FBT,ITIC,-5.41,-3.6,-5.574146341463415,-3.915,1.0,CB,DIO,25.0,MoOx,ZnO,11.66,11.67,1.03,17.09,66.3,CCCCCCCCc1cc(-c2c(F)c(F)c(-c3cc(CCCCCCCC)c(-c4cc5c(-c6cc(F)c(SSCC(CCCC)CCCCCC)s6)c6sc(C)cc6c(-c6cc(F)c(SSCC(CCCC)CCCCCC)s6)c5s4)s3)c3nsnc23)sc1C.CCCCCCc1ccc(C2(c3ccc(CCCCCC)cc3)c3cc4c(cc3-c3sc5cc(/C=C6\C(=O)c7ccccc7C6=C(C#N)C#N)sc5c32)C(c2ccc(CCCCCC)cc2)(c2ccc(CCCCCC)cc2)c2c-4sc3cc(/C=C4\C(=O)c5ccccc5C4=C(C#N)C#N)sc23)cc1,[C][C][C][C][C][C][C][C][C][C][=C][Branch2][#Branch2][Ring2][C][=C][Branch1][C][F][C][Branch1][C][F][=C][Branch2][Branch2][=N][C][=C][C][Branch1][=Branch2][C][C][C][C][C][C][C][C][=C][Branch2][#Branch1][Branch2][C][=C][C][=C][Branch2][Ring1][=C][C][=C][C][Branch1][C][F][=C][Branch1][P][S][S][C][C][Branch1][Branch1][C][C][C][C][C][C][C][C][C][C][S][Ring2][Ring1][Ring2][C][S][C][Branch1][C][C][=C][C][=Ring1][=Branch1][C][Branch2][Ring1][=C][C][=C][C][Branch1][C][F][=C][Branch1][P][S][S][C][C][Branch1][Branch1][C][C][C][C][C][C][C][C][C][C][S][Ring2][Ring1][Ring2][=C][Ring2][Branch1][C][S][Ring2][Branch1][Branch1][S][Ring2][=Branch1][C][C][=N][S][N][=C][Ring2][=Branch1][=N][Ring1][Branch1][S][C][=Ring2][#Branch1][C][C].[C][C][C][C][C][C][C][=C][C][=C][Branch2][O][N][C][Branch1][P][C][=C][C][=C][Branch1][#Branch1][C][C][C][C][C][C][C][=C][Ring1][N][C][=C][C][=C][Branch2][Ring2][P][C][=C][Ring1][=Branch1][C][S][C][C][=C][Branch2][Ring1][=Branch2][/C][=C][\C][=Branch1][C][=O][C][=C][C][=C][C][=C][Ring1][=Branch1][C][Ring1][#Branch2][=C][Branch1][Ring1][C][#N][C][#N][S][C][=Ring2][Ring1][Branch1][C][=Ring2][Ring1][Branch2][Ring2][Ring2][O][C][Branch1][P][C][=C][C][=C][Branch1][#Branch1][C][C][C][C][C][C][C][=C][Ring1][N][Branch1][P][C][=C][C][=C][Branch1][#Branch1][C][C][C][C][C][C][C][=C][Ring1][N][C][=C][Ring2][Branch1][#Branch1][S][C][C][=C][Branch2][Ring1][=Branch2][/C][=C][\C][=Branch1][C][=O][C][=C][C][=C][C][=C][Ring1][=Branch1][C][Ring1][#Branch2][=C][Branch1][Ring1][C][#N][C][#N][S][C][Ring2][Ring1][Branch2][=Ring2][Ring1][Branch1][C][=C][Ring2][Branch2][C],{CCCCCCCCc1cc(-c2c(F)c(F)c(-c3cc(CCCCCCCC)c(-c4cc5c(-c6cc(F)c(SSCC(CCCC)CCCCCC)s6)c6sc([$])cc6c(-c6cc(F)c(SSCC(CCCC)CCCCCC)s6)c5s4)s3)c3nsnc23)sc1[$]}.CCCCCCc1ccc(C2(c3ccc(CCCCCC)cc3)c3cc4c(cc3-c3sc5cc(/C=C6\C(=O)c7ccccc7C6=C(C#N)C#N)sc5c32)C(c2ccc(CCCCCC)cc2)(c2ccc(CCCCCC)cc2)c2c-4sc3cc(/C=C4\C(=O)c5ccccc5C4=C(C#N)C#N)sc23)cc1