Donor,Acceptor,HOMO_D_eV,LUMO_D_eV,Eg_D_eV,Ehl_D_eV,HOMO_A_eV,LUMO_A_eV,Ehl_A_eV,Eg_A_eV,D_A_ratio_m_m,solvent,solvent_additive,annealing_temperature,hole_contact_layer,electron_contact_layer,PCE_percent,calc_PCE_percent,Voc_V,Jsc_mA_cm_pow_neg2,FF_percent,DA_SMILES,DA_SELFIES,DA_BigSMILES
PBDB-T,ITCT,-5.297777777777778,-3.4170000000000003,1.7681818181818183,-1.8807777777777777,-5.5888888888888895,-3.836666666666667,-1.7522222222222226,1.58,1:1,CB,_,120.0,PEDOT:PSS,N719:PrC60MAI,11.27,10.94256,0.85,17.88,72.0,Cc1ccc(-c2sc(-c3ccc(-c4cc5c(-c6ccc([Cr])s6)c6sc(C)cc6c(-c6ccc([Cr])s6)c5s4)s3)c3c2C(=O)c2c([Cr])sc([Cr])c2C3=O)s1.N#CC(C#N)=C1/C(=C/c2cc3sc4c(c3s2)C(c2ccc([Mo])cc2)(c2ccc([Mo])cc2)c2cc3c(cc2-4)C(c2ccc([Mo])cc2)(c2ccc([Mo])cc2)c2c-3sc3cc(/C=C4\C(=O)c5cscc5C4=C(C#N)C#N)sc23)C(=O)c2cscc21,[C][C][=C][C][=C][Branch2][#Branch1][O][C][S][C][Branch2][Branch1][O][C][=C][C][=C][Branch2][Ring2][S][C][=C][C][=C][Branch1][O][C][=C][C][=C][Branch1][C][Cr][S][Ring1][=Branch1][C][S][C][Branch1][C][C][=C][C][=Ring1][=Branch1][C][Branch1][O][C][=C][C][=C][Branch1][C][Cr][S][Ring1][=Branch1][=C][Ring2][Ring1][=Branch1][S][Ring2][Ring1][=Branch2][S][Ring2][Ring1][=C][=C][C][=Ring2][Ring2][Ring1][C][=Branch1][C][=O][C][=C][Branch1][C][Cr][S][C][Branch1][C][Cr][=C][Ring1][#Branch1][C][Ring1][N][=O][S][Ring2][Branch1][Ring1].[N][#C][C][Branch1][Ring1][C][#N][=C][/C][=Branch2][=Branch2][=C][=C][/C][=C][C][S][C][=C][Branch1][#Branch1][C][=Ring1][Branch1][S][Ring1][Branch2][C][Branch1][N][C][=C][C][=C][Branch1][C][Mo][C][=C][Ring1][#Branch1][Branch1][N][C][=C][C][=C][Branch1][C][Mo][C][=C][Ring1][#Branch1][C][=C][C][=C][Branch1][Branch2][C][=C][Ring1][=Branch1][Ring2][Ring1][=Branch2][C][Branch1][N][C][=C][C][=C][Branch1][C][Mo][C][=C][Ring1][#Branch1][Branch1][N][C][=C][C][=C][Branch1][C][Mo][C][=C][Ring1][#Branch1][C][=C][Ring2][Ring1][Branch1][S][C][C][=C][Branch2][Ring1][Branch2][/C][=C][\C][=Branch1][C][=O][C][=C][S][C][=C][Ring1][Branch1][C][Ring1][=Branch2][=C][Branch1][Ring1][C][#N][C][#N][S][C][Ring2][Ring1][#Branch1][=Ring2][Ring1][Ring2][C][=Branch1][C][=O][C][=C][S][C][=C][Ring1][Branch1][Ring2][=Branch1][=N],{[$]c1ccc(-c2sc(-c3ccc(-c4cc5c(-c6ccc([Cr])s6)c6sc([$])cc6c(-c6ccc([Cr])s6)c5s4)s3)c3c2C(=O)c2c([Cr])sc([Cr])c2C3=O)s1}.N#CC(C#N)=C1/C(=C/c2cc3sc4c(c3s2)C(c2ccc([Mo])cc2)(c2ccc([Mo])cc2)c2cc3c(cc2-4)C(c2ccc([Mo])cc2)(c2ccc([Mo])cc2)c2c-3sc3cc(/C=C4\C(=O)c5cscc5C4=C(C#N)C#N)sc23)C(=O)c2cscc21
PBDB-T,ITCPTC-Th,-5.297777777777778,-3.4170000000000003,1.7681818181818183,-1.8807777777777777,-5.68,-4.03,-1.6499999999999997,1.6,1:1,CB,DIO,25.0,MoOx,ZnO,10.61,10.6104196,0.856,17.05,72.7,Cc1ccc(-c2sc(-c3ccc(-c4cc5c(-c6ccc([Cr])s6)c6sc(C)cc6c(-c6ccc([Cr])s6)c5s4)s3)c3c2C(=O)c2c([Cr])sc([Cr])c2C3=O)s1.N#CC(C#N)=C1/C(=C/c2cc3sc4c(c3s2)C(c2ccc([Mo])s2)(c2ccc([Mo])s2)c2cc3c(cc2-4)C(c2ccc([Mo])s2)(c2ccc([Mo])s2)c2c-3sc3cc(/C=C4\C(=O)c5cscc5C4=C(C#N)C#N)sc23)C(=O)c2cscc21,[C][C][=C][C][=C][Branch2][#Branch1][O][C][S][C][Branch2][Branch1][O][C][=C][C][=C][Branch2][Ring2][S][C][=C][C][=C][Branch1][O][C][=C][C][=C][Branch1][C][Cr][S][Ring1][=Branch1][C][S][C][Branch1][C][C][=C][C][=Ring1][=Branch1][C][Branch1][O][C][=C][C][=C][Branch1][C][Cr][S][Ring1][=Branch1][=C][Ring2][Ring1][=Branch1][S][Ring2][Ring1][=Branch2][S][Ring2][Ring1][=C][=C][C][=Ring2][Ring2][Ring1][C][=Branch1][C][=O][C][=C][Branch1][C][Cr][S][C][Branch1][C][Cr][=C][Ring1][#Branch1][C][Ring1][N][=O][S][Ring2][Branch1][Ring1].[N][#C][C][Branch1][Ring1][C][#N][=C][/C][=Branch2][=Branch2][#Branch2][=C][/C][=C][C][S][C][=C][Branch1][#Branch1][C][=Ring1][Branch1][S][Ring1][Branch2][C][Branch1][O][C][=C][C][=C][Branch1][C][Mo][S][Ring1][=Branch1][Branch1][O][C][=C][C][=C][Branch1][C][Mo][S][Ring1][=Branch1][C][=C][C][=C][Branch1][Branch2][C][=C][Ring1][=Branch1][Ring2][Ring1][#Branch1][C][Branch1][O][C][=C][C][=C][Branch1][C][Mo][S][Ring1][=Branch1][Branch1][O][C][=C][C][=C][Branch1][C][Mo][S][Ring1][=Branch1][C][=C][Ring2][Ring1][Ring1][S][C][C][=C][Branch2][Ring1][Branch2][/C][=C][\C][=Branch1][C][=O][C][=C][S][C][=C][Ring1][Branch1][C][Ring1][=Branch2][=C][Branch1][Ring1][C][#N][C][#N][S][C][Ring2][Ring1][#Branch1][=Ring2][Ring1][Ring2][C][=Branch1][C][=O][C][=C][S][C][=C][Ring1][Branch1][Ring2][=Branch1][=Branch2],{[$]c1ccc(-c2sc(-c3ccc(-c4cc5c(-c6ccc([Cr])s6)c6sc([$])cc6c(-c6ccc([Cr])s6)c5s4)s3)c3c2C(=O)c2c([Cr])sc([Cr])c2C3=O)s1}.N#CC(C#N)=C1/C(=C/c2cc3sc4c(c3s2)C(c2ccc([Mo])s2)(c2ccc([Mo])s2)c2cc3c(cc2-4)C(c2ccc([Mo])s2)(c2ccc([Mo])s2)c2c-3sc3cc(/C=C4\C(=O)c5cscc5C4=C(C#N)C#N)sc23)C(=O)c2cscc21
PTB7-Th,IEICO-4F,-5.21,-3.542368421052632,1.5883333333333332,-1.667631578947368,-5.309971428571429,-3.851028571428572,-1.458942857142857,1.2525000000000002,1:1.5,CB,DIO,100.0,PEDOT:PSS,PFN-Br,11.13,11.1317904,0.72,25.16,61.45,Cc1cc2c(-c3ccc([Cr])s3)c3sc(-c4sc(C)c5c(F)c(C(=O)O[Cr])sc45)cc3c(-c3ccc([Cr])s3)c2s1.N#CC(C#N)=C1/C(=C/c2cc(O[Cr])c(-c3cc4c(s3)-c3cc5c(cc3C4(c3ccc([Mo])cc3)c3ccc([Mo])cc3)-c3sc(-c4sc(/C=C6\C(=O)c7cc(F)c(F)cc7C6=C(C#N)C#N)cc4O[Cr])cc3C5(c3ccc([Mo])cc3)c3ccc([Mo])cc3)s2)C(=O)c2cc(F)c(F)cc21,[C][C][=C][C][=C][Branch1][O][C][=C][C][=C][Branch1][C][Cr][S][Ring1][=Branch1][C][S][C][Branch2][Ring1][O][C][S][C][Branch1][C][C][=C][C][Branch1][C][F][=C][Branch1][#Branch1][C][=Branch1][C][=O][O][Cr][S][C][=Ring1][=C][Ring1][#Branch2][=C][C][=Ring2][Ring1][Ring1][C][Branch1][O][C][=C][C][=C][Branch1][C][Cr][S][Ring1][=Branch1][=C][Ring2][Ring2][Ring1][S][Ring2][Ring2][=Branch1].[N][#C][C][Branch1][Ring1][C][#N][=C][/C][=Branch2][O][C][=C][/C][=C][C][Branch1][Ring1][O][Cr][=C][Branch2][#Branch2][C][C][=C][C][=C][Branch1][Ring2][S][Ring1][Branch1][C][=C][C][=C][Branch2][Ring1][S][C][=C][Ring1][=Branch1][C][Ring1][#Branch2][Branch1][N][C][=C][C][=C][Branch1][C][Mo][C][=C][Ring1][#Branch1][C][=C][C][=C][Branch1][C][Mo][C][=C][Ring1][#Branch1][C][S][C][Branch2][Ring2][N][C][S][C][Branch2][Ring1][#C][/C][=C][\C][=Branch1][C][=O][C][=C][C][Branch1][C][F][=C][Branch1][C][F][C][=C][Ring1][Branch2][C][Ring1][N][=C][Branch1][Ring1][C][#N][C][#N][=C][C][=Ring2][Ring1][#Branch1][O][Cr][=C][C][=Ring2][Ring1][=C][C][Ring2][Branch1][C][Branch1][N][C][=C][C][=C][Branch1][C][Mo][C][=C][Ring1][#Branch1][C][=C][C][=C][Branch1][C][Mo][C][=C][Ring1][#Branch1][S][Ring2][=Branch1][=C][C][=Branch1][C][=O][C][=C][C][Branch1][C][F][=C][Branch1][C][F][C][=C][Ring1][Branch2][Ring2][#Branch1][O],{[$]c1cc2c(-c3ccc([Cr])s3)c3sc(-c4sc([$])c5c(F)c(C(=O)O[Cr])sc45)cc3c(-c3ccc([Cr])s3)c2s1}.N#CC(C#N)=C1/C(=C/c2cc(O[Cr])c(-c3cc4c(s3)-c3cc5c(cc3C4(c3ccc([Mo])cc3)c3ccc([Mo])cc3)-c3sc(-c4sc(/C=C6\C(=O)c7cc(F)c(F)cc7C6=C(C#N)C#N)cc4O[Cr])cc3C5(c3ccc([Mo])cc3)c3ccc([Mo])cc3)s2)C(=O)c2cc(F)c(F)cc21
PBDB-T,MeIC,-5.297777777777778,-3.4170000000000003,1.7681818181818183,-1.8807777777777777,-5.57,-3.93,-1.64,1.5550000000000002,1:1,CB,DIO,120.0,PEDOT:PSS,PDIN,12.03,12.02970496,0.896,18.07,74.3,Cc1ccc(-c2sc(-c3ccc(-c4cc5c(-c6ccc([Cr])s6)c6sc(C)cc6c(-c6ccc([Cr])s6)c5s4)s3)c3c2C(=O)c2c([Cr])sc([Cr])c2C3=O)s1.Cc1scc2c1C(=O)/C(=C\c1cc3sc4c(c3s1)C(c1ccc([Mo])cc1)(c1ccc([Mo])cc1)c1cc3c(cc1-4)C(c1ccc([Mo])cc1)(c1ccc([Mo])cc1)c1c-3sc3cc(/C=C4\C(=O)c5c(csc5C)C4=C(C#N)C#N)sc13)C2=C(C#N)C#N,[C][C][=C][C][=C][Branch2][#Branch1][O][C][S][C][Branch2][Branch1][O][C][=C][C][=C][Branch2][Ring2][S][C][=C][C][=C][Branch1][O][C][=C][C][=C][Branch1][C][Cr][S][Ring1][=Branch1][C][S][C][Branch1][C][C][=C][C][=Ring1][=Branch1][C][Branch1][O][C][=C][C][=C][Branch1][C][Cr][S][Ring1][=Branch1][=C][Ring2][Ring1][=Branch1][S][Ring2][Ring1][=Branch2][S][Ring2][Ring1][=C][=C][C][=Ring2][Ring2][Ring1][C][=Branch1][C][=O][C][=C][Branch1][C][Cr][S][C][Branch1][C][Cr][=C][Ring1][#Branch1][C][Ring1][N][=O][S][Ring2][Branch1][Ring1].[C][C][S][C][=C][C][=Ring1][Branch1][C][=Branch1][C][=O][/C][=Branch2][=Branch2][P][=C][\C][=C][C][S][C][=C][Branch1][#Branch1][C][=Ring1][Branch1][S][Ring1][Branch2][C][Branch1][N][C][=C][C][=C][Branch1][C][Mo][C][=C][Ring1][#Branch1][Branch1][N][C][=C][C][=C][Branch1][C][Mo][C][=C][Ring1][#Branch1][C][=C][C][=C][Branch1][Branch2][C][=C][Ring1][=Branch1][Ring2][Ring1][=Branch2][C][Branch1][N][C][=C][C][=C][Branch1][C][Mo][C][=C][Ring1][#Branch1][Branch1][N][C][=C][C][=C][Branch1][C][Mo][C][=C][Ring1][#Branch1][C][=C][Ring2][Ring1][Branch1][S][C][C][=C][Branch2][Ring1][O][/C][=C][\C][=Branch1][C][=O][C][C][=Branch1][#Branch1][=C][S][C][=Ring1][Branch1][C][C][Ring1][#Branch2][=C][Branch1][Ring1][C][#N][C][#N][S][C][Ring2][Ring1][Branch2][=Ring2][Ring1][Branch1][C][Ring2][=Branch1][O][=C][Branch1][Ring1][C][#N][C][#N],{[$]c1ccc(-c2sc(-c3ccc(-c4cc5c(-c6ccc([Cr])s6)c6sc([$])cc6c(-c6ccc([Cr])s6)c5s4)s3)c3c2C(=O)c2c([Cr])sc([Cr])c2C3=O)s1}.Cc1scc2c1C(=O)/C(=C\c1cc3sc4c(c3s1)C(c1ccc([Mo])cc1)(c1ccc([Mo])cc1)c1cc3c(cc1-4)C(c1ccc([Mo])cc1)(c1ccc([Mo])cc1)c1c-3sc3cc(/C=C4\C(=O)c5c(csc5C)C4=C(C#N)C#N)sc13)C2=C(C#N)C#N
PTB7-Th,IFTIC,-5.21,-3.542368421052632,1.5883333333333332,-1.667631578947368,-5.529999999999999,-3.825,-1.7049999999999992,1.81,1:2,o-DCB,_,25.0,MoOx,ZnO,5.77,5.705775,0.9,11.85,53.5,Cc1cc2c(-c3ccc([Cr])s3)c3sc(-c4sc(C)c5c(F)c(C(=O)O[Cr])sc45)cc3c(-c3ccc([Cr])s3)c2s1.N#CC(C#N)=C1/C(=C/c2ccc(-c3ccc4c(c3)C([Ti])([Ti])c3cc5c(cc3-4)C([Ti])([Ti])c3cc(-c4ccc(/C=C6\C(=O)c7ccccc7C6=C(C#N)C#N)s4)ccc3-5)s2)C(=O)c2ccccc21,[C][C][=C][C][=C][Branch1][O][C][=C][C][=C][Branch1][C][Cr][S][Ring1][=Branch1][C][S][C][Branch2][Ring1][O][C][S][C][Branch1][C][C][=C][C][Branch1][C][F][=C][Branch1][#Branch1][C][=Branch1][C][=O][O][Cr][S][C][=Ring1][=C][Ring1][#Branch2][=C][C][=Ring2][Ring1][Ring1][C][Branch1][O][C][=C][C][=C][Branch1][C][Cr][S][Ring1][=Branch1][=C][Ring2][Ring2][Ring1][S][Ring2][Ring2][=Branch1].[N][#C][C][Branch1][Ring1][C][#N][=C][/C][=Branch2][Branch2][Ring1][=C][/C][=C][C][=C][Branch2][#Branch1][#Branch1][C][=C][C][=C][C][=Branch1][Ring2][=C][Ring1][=Branch1][C][Branch1][C][Ti][Branch1][C][Ti][C][=C][C][=C][Branch1][#Branch1][C][=C][Ring1][=Branch1][Ring1][N][C][Branch1][C][Ti][Branch1][C][Ti][C][=C][C][Branch2][Ring2][Ring2][C][=C][C][=C][Branch2][Ring1][=Branch2][/C][=C][\C][=Branch1][C][=O][C][=C][C][=C][C][=C][Ring1][=Branch1][C][Ring1][#Branch2][=C][Branch1][Ring1][C][#N][C][#N][S][Ring2][Ring1][Branch1][=C][C][=C][Ring2][Ring1][O][Ring2][Ring2][C][S][Ring2][Branch1][C][C][=Branch1][C][=O][C][=C][C][=C][C][=C][Ring1][=Branch1][Ring2][Branch1][=N],{[$]c1cc2c(-c3ccc([Cr])s3)c3sc(-c4sc([$])c5c(F)c(C(=O)O[Cr])sc45)cc3c(-c3ccc([Cr])s3)c2s1}.N#CC(C#N)=C1/C(=C/c2ccc(-c3ccc4c(c3)C([Ti])([Ti])c3cc5c(cc3-4)C([Ti])([Ti])c3cc(-c4ccc(/C=C6\C(=O)c7ccccc7C6=C(C#N)C#N)s4)ccc3-5)s2)C(=O)c2ccccc21
PBDTTT-C-T,IDTT-2BM,-5.125,-3.265,1.58,-1.86,-5.5,-3.8,-1.7000000000000002,1.54,1.5:1,o-DCB,DIO,25.0,PEDOT:PSS,Ca,4.7,4.6412132,0.845,9.67,56.8,Cc1cc2c(-c3ccc([Cr])s3)c3sc(-c4sc(C)c5cc(C(=O)[Cr])sc45)cc3c(-c3ccc([Cr])s3)c2s1.N#CC(C#N)=Cc1ccc(-c2cc3sc4c(c3s2)C(c2ccc([Mo])cc2)(c2ccc([Mo])cc2)c2cc3c(cc2-4)C(c2ccc([Mo])cc2)(c2ccc([Mo])cc2)c2c-3sc3cc(-c4ccc(C=C(C#N)C#N)c5nsnc45)sc23)c2nsnc12,[C][C][=C][C][=C][Branch1][O][C][=C][C][=C][Branch1][C][Cr][S][Ring1][=Branch1][C][S][C][Branch2][Ring1][#Branch1][C][S][C][Branch1][C][C][=C][C][=C][Branch1][=Branch1][C][=Branch1][C][=O][Cr][S][C][=Ring1][N][Ring1][Branch2][=C][C][=Ring1][P][C][Branch1][O][C][=C][C][=C][Branch1][C][Cr][S][Ring1][=Branch1][=C][Ring2][Ring1][P][S][Ring2][Ring2][Ring2].[N][#C][C][Branch1][Ring1][C][#N][=C][C][=C][C][=C][Branch2][=Branch2][=N][C][=C][C][S][C][=C][Branch1][#Branch1][C][=Ring1][Branch1][S][Ring1][Branch2][C][Branch1][N][C][=C][C][=C][Branch1][C][Mo][C][=C][Ring1][#Branch1][Branch1][N][C][=C][C][=C][Branch1][C][Mo][C][=C][Ring1][#Branch1][C][=C][C][=C][Branch1][Branch2][C][=C][Ring1][=Branch1][Ring2][Ring1][=Branch2][C][Branch1][N][C][=C][C][=C][Branch1][C][Mo][C][=C][Ring1][#Branch1][Branch1][N][C][=C][C][=C][Branch1][C][Mo][C][=C][Ring1][#Branch1][C][=C][Ring2][Ring1][Branch1][S][C][C][=C][Branch2][Ring1][Branch2][C][=C][C][=C][Branch1][=Branch2][C][=C][Branch1][Ring1][C][#N][C][#N][C][=N][S][N][=C][Ring1][#C][Ring1][Branch1][S][C][Ring2][Ring1][#Branch1][=Ring2][Ring1][Ring2][C][=N][S][N][=C][Ring2][=Branch1][N][Ring1][Branch1],{[$]c1cc2c(-c3ccc([Cr])s3)c3sc(-c4sc([$])c5cc(C(=O)[Cr])sc45)cc3c(-c3ccc([Cr])s3)c2s1}.N#CC(C#N)=Cc1ccc(-c2cc3sc4c(c3s2)C(c2ccc([Mo])cc2)(c2ccc([Mo])cc2)c2cc3c(cc2-4)C(c2ccc([Mo])cc2)(c2ccc([Mo])cc2)c2c-3sc3cc(-c4ccc(C=C(C#N)C#N)c5nsnc45)sc23)c2nsnc12
PTB7-Th,IDT-T,-5.21,-3.542368421052632,1.5883333333333332,-1.667631578947368,-5.4625,-3.9225,-1.5400000000000005,1.545,1:1.3,CB,CN,25.0,MoOx,ZnO,4.08,4.0789224,0.84,9.54,50.9,Cc1cc2c(-c3ccc([Cr])s3)c3sc(-c4sc(C)c5c(F)c(C(=O)O[Cr])sc45)cc3c(-c3ccc([Cr])s3)c2s1.N#CC(C#N)=C1/C(=C/c2ccc(-c3cc4c(s3)-c3cc5c(cc3C4(c3ccc([Mo])cc3)c3ccc([Mo])cc3)-c3sc(-c4ccc(/C=C6\C(=O)c7ccccc7C6=C(C#N)C#N)s4)cc3C5(c3ccc([Mo])cc3)c3ccc([Mo])cc3)s2)C(=O)c2ccccc21,[C][C][=C][C][=C][Branch1][O][C][=C][C][=C][Branch1][C][Cr][S][Ring1][=Branch1][C][S][C][Branch2][Ring1][O][C][S][C][Branch1][C][C][=C][C][Branch1][C][F][=C][Branch1][#Branch1][C][=Branch1][C][=O][O][Cr][S][C][=Ring1][=C][Ring1][#Branch2][=C][C][=Ring2][Ring1][Ring1][C][Branch1][O][C][=C][C][=C][Branch1][C][Cr][S][Ring1][=Branch1][=C][Ring2][Ring2][Ring1][S][Ring2][Ring2][=Branch1].[N][#C][C][Branch1][Ring1][C][#N][=C][/C][=Branch2][#Branch2][=Branch1][=C][/C][=C][C][=C][Branch2][=Branch2][#Branch2][C][=C][C][=C][Branch1][Ring2][S][Ring1][Branch1][C][=C][C][=C][Branch2][Ring1][S][C][=C][Ring1][=Branch1][C][Ring1][#Branch2][Branch1][N][C][=C][C][=C][Branch1][C][Mo][C][=C][Ring1][#Branch1][C][=C][C][=C][Branch1][C][Mo][C][=C][Ring1][#Branch1][C][S][C][Branch2][Ring2][Ring2][C][=C][C][=C][Branch2][Ring1][=Branch2][/C][=C][\C][=Branch1][C][=O][C][=C][C][=C][C][=C][Ring1][=Branch1][C][Ring1][#Branch2][=C][Branch1][Ring1][C][#N][C][#N][S][Ring2][Ring1][Branch1][=C][C][=Ring2][Ring1][#Branch2][C][Ring2][Ring2][=C][Branch1][N][C][=C][C][=C][Branch1][C][Mo][C][=C][Ring1][#Branch1][C][=C][C][=C][Branch1][C][Mo][C][=C][Ring1][#Branch1][S][Ring2][=Branch1][Branch2][C][=Branch1][C][=O][C][=C][C][=C][C][=C][Ring1][=Branch1][Ring2][#Branch1][Ring1],{[$]c1cc2c(-c3ccc([Cr])s3)c3sc(-c4sc([$])c5c(F)c(C(=O)O[Cr])sc45)cc3c(-c3ccc([Cr])s3)c2s1}.N#CC(C#N)=C1/C(=C/c2ccc(-c3cc4c(s3)-c3cc5c(cc3C4(c3ccc([Mo])cc3)c3ccc([Mo])cc3)-c3sc(-c4ccc(/C=C6\C(=O)c7ccccc7C6=C(C#N)C#N)s4)cc3C5(c3ccc([Mo])cc3)c3ccc([Mo])cc3)s2)C(=O)c2ccccc21
PBDB-T,IDT-Tz,-5.297777777777778,-3.4170000000000003,1.7681818181818183,-1.8807777777777777,-5.62,-4.09,-1.5300000000000002,1.53,1:1,CB,CN,25.0,MoOx,ZnO,8.52,8.5169568,0.88,13.67,70.8,Cc1ccc(-c2sc(-c3ccc(-c4cc5c(-c6ccc([Cr])s6)c6sc(C)cc6c(-c6ccc([Cr])s6)c5s4)s3)c3c2C(=O)c2c([Cr])sc([Cr])c2C3=O)s1.N#CC(C#N)=C1/C(=C/c2cnc(-c3ccc4c(c3)C(c3ccc([Mo])cc3)(c3ccc([Mo])cc3)c3cc5c(cc3-4)C(c3ccc([Mo])cc3)(c3ccc([Mo])cc3)c3cc(-c4ncc(/C=C6\C(=O)c7ccccc7C6=C(C#N)C#N)s4)ccc3-5)s2)C(=O)c2ccccc21,[C][C][=C][C][=C][Branch2][#Branch1][O][C][S][C][Branch2][Branch1][O][C][=C][C][=C][Branch2][Ring2][S][C][=C][C][=C][Branch1][O][C][=C][C][=C][Branch1][C][Cr][S][Ring1][=Branch1][C][S][C][Branch1][C][C][=C][C][=Ring1][=Branch1][C][Branch1][O][C][=C][C][=C][Branch1][C][Cr][S][Ring1][=Branch1][=C][Ring2][Ring1][=Branch1][S][Ring2][Ring1][=Branch2][S][Ring2][Ring1][=C][=C][C][=Ring2][Ring2][Ring1][C][=Branch1][C][=O][C][=C][Branch1][C][Cr][S][C][Branch1][C][Cr][=C][Ring1][#Branch1][C][Ring1][N][=O][S][Ring2][Branch1][Ring1].[N][#C][C][Branch1][Ring1][C][#N][=C][/C][=Branch2][#Branch2][N][=C][/C][=C][N][=C][Branch2][=Branch2][S][C][=C][C][=C][C][=Branch1][Ring2][=C][Ring1][=Branch1][C][Branch1][N][C][=C][C][=C][Branch1][C][Mo][C][=C][Ring1][#Branch1][Branch1][N][C][=C][C][=C][Branch1][C][Mo][C][=C][Ring1][#Branch1][C][=C][C][=C][Branch1][Branch2][C][=C][Ring1][=Branch1][Ring2][Ring1][Branch2][C][Branch1][N][C][=C][C][=C][Branch1][C][Mo][C][=C][Ring1][#Branch1][Branch1][N][C][=C][C][=C][Branch1][C][Mo][C][=C][Ring1][#Branch1][C][=C][C][Branch2][Ring2][Ring2][C][=N][C][=C][Branch2][Ring1][=Branch2][/C][=C][\C][=Branch1][C][=O][C][=C][C][=C][C][=C][Ring1][=Branch1][C][Ring1][#Branch2][=C][Branch1][Ring1][C][#N][C][#N][S][Ring2][Ring1][Branch1][=C][C][=C][Ring2][Ring1][O][Ring2][Ring2][=C][S][Ring2][=Branch1][#Branch2][C][=Branch1][C][=O][C][=C][C][=C][C][=C][Ring1][=Branch1][Ring2][#Branch1][Branch1],{[$]c1ccc(-c2sc(-c3ccc(-c4cc5c(-c6ccc([Cr])s6)c6sc([$])cc6c(-c6ccc([Cr])s6)c5s4)s3)c3c2C(=O)c2c([Cr])sc([Cr])c2C3=O)s1}.N#CC(C#N)=C1/C(=C/c2cnc(-c3ccc4c(c3)C(c3ccc([Mo])cc3)(c3ccc([Mo])cc3)c3cc5c(cc3-4)C(c3ccc([Mo])cc3)(c3ccc([Mo])cc3)c3cc(-c4ncc(/C=C6\C(=O)c7ccccc7C6=C(C#N)C#N)s4)ccc3-5)s2)C(=O)c2ccccc21
PTB7-Th,IDT-IC,-5.21,-3.542368421052632,1.5883333333333332,-1.667631578947368,-5.658,-3.856,-1.8020000000000005,1.704,1:1.5,o-DCB,_,150.0,PEDOT:PSS,PDINO,3.16,3.16396,0.83,9.53,40.0,Cc1cc2c(-c3ccc([Cr])s3)c3sc(-c4sc(C)c5c(F)c(C(=O)O[Cr])sc45)cc3c(-c3ccc([Cr])s3)c2s1.N#CC(C#N)=C1/C(=C/c2cc3c(s2)-c2cc4c(cc2C3(c2ccc([Mo])cc2)c2ccc([Mo])cc2)-c2sc(/C=C3\C(=O)c5ccccc5C3=C(C#N)C#N)cc2C4(c2ccc([Mo])cc2)c2ccc([Mo])cc2)C(=O)c2ccccc21,[C][C][=C][C][=C][Branch1][O][C][=C][C][=C][Branch1][C][Cr][S][Ring1][=Branch1][C][S][C][Branch2][Ring1][O][C][S][C][Branch1][C][C][=C][C][Branch1][C][F][=C][Branch1][#Branch1][C][=Branch1][C][=O][O][Cr][S][C][=Ring1][=C][Ring1][#Branch2][=C][C][=Ring2][Ring1][Ring1][C][Branch1][O][C][=C][C][=C][Branch1][C][Cr][S][Ring1][=Branch1][=C][Ring2][Ring2][Ring1][S][Ring2][Ring2][=Branch1].[N][#C][C][Branch1][Ring1][C][#N][=C][/C][=Branch2][Branch2][S][=C][/C][=C][C][=C][Branch1][Ring2][S][Ring1][Branch1][C][=C][C][=C][Branch2][Ring1][S][C][=C][Ring1][=Branch1][C][Ring1][#Branch2][Branch1][N][C][=C][C][=C][Branch1][C][Mo][C][=C][Ring1][#Branch1][C][=C][C][=C][Branch1][C][Mo][C][=C][Ring1][#Branch1][C][S][C][Branch2][Ring1][=Branch2][/C][=C][\C][=Branch1][C][=O][C][=C][C][=C][C][=C][Ring1][=Branch1][C][Ring1][#Branch2][=C][Branch1][Ring1][C][#N][C][#N][=C][C][=Ring2][Ring1][Branch1][C][Ring2][Ring2][=Branch2][Branch1][N][C][=C][C][=C][Branch1][C][Mo][C][=C][Ring1][#Branch1][C][=C][C][=C][Branch1][C][Mo][C][=C][Ring1][#Branch1][C][=Branch1][C][=O][C][=C][C][=C][C][=C][Ring1][=Branch1][Ring2][=Branch1][=Branch2],{[$]c1cc2c(-c3ccc([Cr])s3)c3sc(-c4sc([$])c5c(F)c(C(=O)O[Cr])sc45)cc3c(-c3ccc([Cr])s3)c2s1}.N#CC(C#N)=C1/C(=C/c2cc3c(s2)-c2cc4c(cc2C3(c2ccc([Mo])cc2)c2ccc([Mo])cc2)-c2sc(/C=C3\C(=O)c5ccccc5C3=C(C#N)C#N)cc2C4(c2ccc([Mo])cc2)c2ccc([Mo])cc2)C(=O)c2ccccc21