Donor,Acceptor,HOMO_D_eV,LUMO_D_eV,Eg_D_eV,Ehl_D_eV,HOMO_A_eV,LUMO_A_eV,Ehl_A_eV,Eg_A_eV,D_A_ratio_m_m,solvent,solvent_additive,annealing_temperature,hole_contact_layer,electron_contact_layer,PCE_percent,calc_PCE_percent,Voc_V,Jsc_mA_cm_pow_neg2,FF_percent,DA_SMILES,DA_SELFIES,DA_BigSMILES
PTB7-Th,CZC8,-5.21,-3.542368421052632,1.5883333333333332,-1.667631578947368,-5.72,-3.74,-1.9799999999999995,1.98,1:3,CB,_,100.0,MoOx,ZnO,4.91,4.95684,0.98,11.24,45.0,Cc1cc2c(-c3ccc([Cr])s3)c3sc(-c4sc(C)c5c(F)c(C(=O)O[Cr])sc45)cc3c(-c3ccc([Cr])s3)c2s1.CCCCCCn1c2cc(-c3ccc(/C=C4\SC(=S)N(CC)C4=O)c4nsnc34)ccc2c2ccc(-c3ccc(/C=C4\SC(=S)N(CC)C4=O)c4nsnc34)cc21,[C][C][=C][C][=C][Branch1][O][C][=C][C][=C][Branch1][C][Cr][S][Ring1][=Branch1][C][S][C][Branch2][Ring1][O][C][S][C][Branch1][C][C][=C][C][Branch1][C][F][=C][Branch1][#Branch1][C][=Branch1][C][=O][O][Cr][S][C][=Ring1][=C][Ring1][#Branch2][=C][C][=Ring2][Ring1][Ring1][C][Branch1][O][C][=C][C][=C][Branch1][C][Cr][S][Ring1][=Branch1][=C][Ring2][Ring2][Ring1][S][Ring2][Ring2][=Branch1].[C][C][C][C][C][C][N][C][=C][C][Branch2][Ring1][P][C][=C][C][=C][Branch1][P][/C][=C][\S][C][=Branch1][C][=S][N][Branch1][Ring1][C][C][C][Ring1][Branch2][=O][C][=N][S][N][=C][Ring2][Ring1][Ring1][Ring1][Branch1][=C][C][=C][Ring2][Ring1][=Branch2][C][=C][C][=C][Branch2][Ring1][P][C][=C][C][=C][Branch1][P][/C][=C][\S][C][=Branch1][C][=S][N][Branch1][Ring1][C][C][C][Ring1][Branch2][=O][C][=N][S][N][=C][Ring2][Ring1][Ring1][Ring1][Branch1][C][=C][Ring2][Ring1][=Branch2][Ring2][Branch1][Ring1],{[$]c1cc2c(-c3ccc([Cr])s3)c3sc(-c4sc([$])c5c(F)c(C(=O)O[Cr])sc45)cc3c(-c3ccc([Cr])s3)c2s1}.CCCCCCn1c2cc(-c3ccc(/C=C4\SC(=S)N(CC)C4=O)c4nsnc34)ccc2c2ccc(-c3ccc(/C=C4\SC(=S)N(CC)C4=O)c4nsnc34)cc21
PTFBDT,CZC8,-5.5,-3.69,1.81,-1.81,-5.72,-3.74,-1.9799999999999995,1.98,1:3,CB,_,150.0,MoOx,ZnO,4.67,4.726884,1.16,7.99,51.0,Cc1ccc(-c2c(O[Mn])c(O[Mn])c(-c3ccc(-c4cc5c(-c6cc(F)c(C[Cr])c(F)c6)c6sc(C)cc6c(-c6cc(F)c(C[Cr])c(F)c6)c5s4)s3)c3nsnc23)s1.CCCCCCn1c2cc(-c3ccc(/C=C4\SC(=S)N(CC)C4=O)c4nsnc34)ccc2c2ccc(-c3ccc(/C=C4\SC(=S)N(CC)C4=O)c4nsnc34)cc21,[C][C][=C][C][=C][Branch2][Branch2][=Branch1][C][=C][Branch1][Ring1][O][Mn][C][Branch1][Ring1][O][Mn][=C][Branch2][=Branch1][=N][C][=C][C][=C][Branch2][=Branch1][C][C][=C][C][=C][Branch2][Ring1][Ring1][C][=C][C][Branch1][C][F][=C][Branch1][Ring1][C][Cr][C][Branch1][C][F][=C][Ring1][#Branch2][C][S][C][Branch1][C][C][=C][C][=Ring1][=Branch1][C][Branch2][Ring1][Ring1][C][=C][C][Branch1][C][F][=C][Branch1][Ring1][C][Cr][C][Branch1][C][F][=C][Ring1][#Branch2][=C][Ring2][Ring1][=C][S][Ring2][Ring1][P][S][Ring2][Ring2][=Branch1][C][=N][S][N][=C][Ring2][Branch1][Ring1][Ring1][Branch1][S][Ring2][Branch1][Branch2].[C][C][C][C][C][C][N][C][=C][C][Branch2][Ring1][P][C][=C][C][=C][Branch1][P][/C][=C][\S][C][=Branch1][C][=S][N][Branch1][Ring1][C][C][C][Ring1][Branch2][=O][C][=N][S][N][=C][Ring2][Ring1][Ring1][Ring1][Branch1][=C][C][=C][Ring2][Ring1][=Branch2][C][=C][C][=C][Branch2][Ring1][P][C][=C][C][=C][Branch1][P][/C][=C][\S][C][=Branch1][C][=S][N][Branch1][Ring1][C][C][C][Ring1][Branch2][=O][C][=N][S][N][=C][Ring2][Ring1][Ring1][Ring1][Branch1][C][=C][Ring2][Ring1][=Branch2][Ring2][Branch1][Ring1],{[$]c1ccc(-c2c(O[Mn])c(O[Mn])c(-c3ccc(-c4cc5c(-c6cc(F)c(C[Cr])c(F)c6)c6sc([$])cc6c(-c6cc(F)c(C[Cr])c(F)c6)c5s4)s3)c3nsnc23)s1}.CCCCCCn1c2cc(-c3ccc(/C=C4\SC(=S)N(CC)C4=O)c4nsnc34)ccc2c2ccc(-c3ccc(/C=C4\SC(=S)N(CC)C4=O)c4nsnc34)cc21
PBDB-T,IDTC,-5.297777777777778,-3.4170000000000003,1.7681818181818183,-1.8807777777777777,-5.29,-3.37,-1.92,1.51,1:1,CF,_,160.0,PEDOT:PSS,PDINO,9.35,9.355798872,0.917,16.56,61.61,Cc1ccc(-c2sc(-c3ccc(-c4cc5c(-c6ccc([Cr])s6)c6sc(C)cc6c(-c6ccc([Cr])s6)c5s4)s3)c3c2C(=O)c2c([Cr])sc([Cr])c2C3=O)s1.N#CC(C#N)=C1/C(=C/c2cc([Cr])c(-c3cc4c(s3)-c3cc5c(cc3C4(c3ccc([Mo])cc3)c3ccc([Mo])cc3)-c3sc(-c4sc(/C=C6\C(=O)c7cscc7C6=C(C#N)C#N)cc4[Cr])cc3C5(c3ccc([Mo])cc3)c3ccc([Mo])cc3)s2)C(=O)c2cscc21,[C][C][=C][C][=C][Branch2][#Branch1][O][C][S][C][Branch2][Branch1][O][C][=C][C][=C][Branch2][Ring2][S][C][=C][C][=C][Branch1][O][C][=C][C][=C][Branch1][C][Cr][S][Ring1][=Branch1][C][S][C][Branch1][C][C][=C][C][=Ring1][=Branch1][C][Branch1][O][C][=C][C][=C][Branch1][C][Cr][S][Ring1][=Branch1][=C][Ring2][Ring1][=Branch1][S][Ring2][Ring1][=Branch2][S][Ring2][Ring1][=C][=C][C][=Ring2][Ring2][Ring1][C][=Branch1][C][=O][C][=C][Branch1][C][Cr][S][C][Branch1][C][Cr][=C][Ring1][#Branch1][C][Ring1][N][=O][S][Ring2][Branch1][Ring1].[N][#C][C][Branch1][Ring1][C][#N][=C][/C][=Branch2][#Branch2][=Branch2][=C][/C][=C][C][Branch1][C][Cr][=C][Branch2][=Branch2][#Branch2][C][=C][C][=C][Branch1][Ring2][S][Ring1][Branch1][C][=C][C][=C][Branch2][Ring1][S][C][=C][Ring1][=Branch1][C][Ring1][#Branch2][Branch1][N][C][=C][C][=C][Branch1][C][Mo][C][=C][Ring1][#Branch1][C][=C][C][=C][Branch1][C][Mo][C][=C][Ring1][#Branch1][C][S][C][Branch2][Ring2][Ring2][C][S][C][Branch2][Ring1][Branch2][/C][=C][\C][=Branch1][C][=O][C][=C][S][C][=C][Ring1][Branch1][C][Ring1][=Branch2][=C][Branch1][Ring1][C][#N][C][#N][=C][C][=Ring2][Ring1][Ring2][Cr][=C][C][=Ring2][Ring1][#Branch2][C][Ring2][Ring2][=C][Branch1][N][C][=C][C][=C][Branch1][C][Mo][C][=C][Ring1][#Branch1][C][=C][C][=C][Branch1][C][Mo][C][=C][Ring1][#Branch1][S][Ring2][=Branch1][=Branch2][C][=Branch1][C][=O][C][=C][S][C][=C][Ring1][Branch1][Ring2][#Branch1][Ring1],{[$]c1ccc(-c2sc(-c3ccc(-c4cc5c(-c6ccc([Cr])s6)c6sc([$])cc6c(-c6ccc([Cr])s6)c5s4)s3)c3c2C(=O)c2c([Cr])sc([Cr])c2C3=O)s1}.N#CC(C#N)=C1/C(=C/c2cc([Cr])c(-c3cc4c(s3)-c3cc5c(cc3C4(c3ccc([Mo])cc3)c3ccc([Mo])cc3)-c3sc(-c4sc(/C=C6\C(=O)c7cscc7C6=C(C#N)C#N)cc4[Cr])cc3C5(c3ccc([Mo])cc3)c3ccc([Mo])cc3)s2)C(=O)c2cscc21
PBDB-T,IDTO,-5.297777777777778,-3.4170000000000003,1.7681818181818183,-1.8807777777777777,-5.11,-3.38,-1.7300000000000004,1.53,1:1,CF,_,160.0,PEDOT:PSS,PDINO,10.02,10.02326488,0.943,16.25,65.41,Cc1ccc(-c2sc(-c3ccc(-c4cc5c(-c6ccc([Cr])s6)c6sc(C)cc6c(-c6ccc([Cr])s6)c5s4)s3)c3c2C(=O)c2c([Cr])sc([Cr])c2C3=O)s1.N#CC(C#N)=C1/C(=C/c2cc(O[Cr])c(-c3cc4c(s3)-c3cc5c(cc3C4(c3ccc([Mo])cc3)c3ccc([Mo])cc3)-c3sc(-c4sc(/C=C6\C(=O)c7cscc7C6=C(C#N)C#N)cc4O[Cr])cc3C5(c3ccc([Mo])cc3)c3ccc([Mo])cc3)s2)C(=O)c2cscc21,[C][C][=C][C][=C][Branch2][#Branch1][O][C][S][C][Branch2][Branch1][O][C][=C][C][=C][Branch2][Ring2][S][C][=C][C][=C][Branch1][O][C][=C][C][=C][Branch1][C][Cr][S][Ring1][=Branch1][C][S][C][Branch1][C][C][=C][C][=Ring1][=Branch1][C][Branch1][O][C][=C][C][=C][Branch1][C][Cr][S][Ring1][=Branch1][=C][Ring2][Ring1][=Branch1][S][Ring2][Ring1][=Branch2][S][Ring2][Ring1][=C][=C][C][=Ring2][Ring2][Ring1][C][=Branch1][C][=O][C][=C][Branch1][C][Cr][S][C][Branch1][C][Cr][=C][Ring1][#Branch1][C][Ring1][N][=O][S][Ring2][Branch1][Ring1].[N][#C][C][Branch1][Ring1][C][#N][=C][/C][=Branch2][#Branch2][O][=C][/C][=C][C][Branch1][Ring1][O][Cr][=C][Branch2][=Branch2][O][C][=C][C][=C][Branch1][Ring2][S][Ring1][Branch1][C][=C][C][=C][Branch2][Ring1][S][C][=C][Ring1][=Branch1][C][Ring1][#Branch2][Branch1][N][C][=C][C][=C][Branch1][C][Mo][C][=C][Ring1][#Branch1][C][=C][C][=C][Branch1][C][Mo][C][=C][Ring1][#Branch1][C][S][C][Branch2][Ring2][Branch1][C][S][C][Branch2][Ring1][Branch2][/C][=C][\C][=Branch1][C][=O][C][=C][S][C][=C][Ring1][Branch1][C][Ring1][=Branch2][=C][Branch1][Ring1][C][#N][C][#N][=C][C][=Ring2][Ring1][Ring2][O][Cr][=C][C][=Ring2][Ring1][O][C][Ring2][Ring2][#C][Branch1][N][C][=C][C][=C][Branch1][C][Mo][C][=C][Ring1][#Branch1][C][=C][C][=C][Branch1][C][Mo][C][=C][Ring1][#Branch1][S][Ring2][=Branch1][O][C][=Branch1][C][=O][C][=C][S][C][=C][Ring1][Branch1][Ring2][#Branch1][Branch1],{[$]c1ccc(-c2sc(-c3ccc(-c4cc5c(-c6ccc([Cr])s6)c6sc([$])cc6c(-c6ccc([Cr])s6)c5s4)s3)c3c2C(=O)c2c([Cr])sc([Cr])c2C3=O)s1}.N#CC(C#N)=C1/C(=C/c2cc(O[Cr])c(-c3cc4c(s3)-c3cc5c(cc3C4(c3ccc([Mo])cc3)c3ccc([Mo])cc3)-c3sc(-c4sc(/C=C6\C(=O)c7cscc7C6=C(C#N)C#N)cc4O[Cr])cc3C5(c3ccc([Mo])cc3)c3ccc([Mo])cc3)s2)C(=O)c2cscc21
PTB7-Th,BTA7,-5.21,-3.542368421052632,1.5883333333333332,-1.667631578947368,-5.56,-3.66,-1.9,1.78,1:2,CF,DPE,80.0,PEDOT:PSS,Ca,4.6,4.60404,1.05,10.44,42.0,Cc1cc2c(-c3ccc([Cr])s3)c3sc(-c4sc(C)c5c(F)c(C(=O)O[Cr])sc45)cc3c(-c3ccc([Cr])s3)c2s1.N#CC(C#N)=Cc1ccc(-c2cc3c(s2)-c2cc4c(cc2C3(c2ccc([Mo])cc2)c2ccc([Mo])cc2)-c2sc(-c3ccc(C=C(C#N)C#N)c5nn([Ti])nc35)cc2C4(c2ccc([Mo])cc2)c2ccc([Mo])cc2)c2nn([Ti])nc12,[C][C][=C][C][=C][Branch1][O][C][=C][C][=C][Branch1][C][Cr][S][Ring1][=Branch1][C][S][C][Branch2][Ring1][O][C][S][C][Branch1][C][C][=C][C][Branch1][C][F][=C][Branch1][#Branch1][C][=Branch1][C][=O][O][Cr][S][C][=Ring1][=C][Ring1][#Branch2][=C][C][=Ring2][Ring1][Ring1][C][Branch1][O][C][=C][C][=C][Branch1][C][Cr][S][Ring1][=Branch1][=C][Ring2][Ring2][Ring1][S][Ring2][Ring2][=Branch1].[N][#C][C][Branch1][Ring1][C][#N][=C][C][=C][C][=C][Branch2][Branch2][P][C][=C][C][=C][Branch1][Ring2][S][Ring1][Branch1][C][=C][C][=C][Branch2][Ring1][S][C][=C][Ring1][=Branch1][C][Ring1][#Branch2][Branch1][N][C][=C][C][=C][Branch1][C][Mo][C][=C][Ring1][#Branch1][C][=C][C][=C][Branch1][C][Mo][C][=C][Ring1][#Branch1][C][S][C][Branch2][Ring1][O][C][=C][C][=C][Branch1][=Branch2][C][=C][Branch1][Ring1][C][#N][C][#N][C][=N][N][Branch1][C][Ti][N][=C][Ring1][S][Ring1][=Branch1][=C][C][=Ring2][Ring1][Branch1][C][Ring2][Ring2][=Branch2][Branch1][N][C][=C][C][=C][Branch1][C][Mo][C][=C][Ring1][#Branch1][C][=C][C][=C][Branch1][C][Mo][C][=C][Ring1][#Branch1][C][=N][N][Branch1][C][Ti][N][=C][Ring2][=Branch1][Branch2][Ring1][=Branch1],{[$]c1cc2c(-c3ccc([Cr])s3)c3sc(-c4sc([$])c5c(F)c(C(=O)O[Cr])sc45)cc3c(-c3ccc([Cr])s3)c2s1}.N#CC(C#N)=Cc1ccc(-c2cc3c(s2)-c2cc4c(cc2C3(c2ccc([Mo])cc2)c2ccc([Mo])cc2)-c2sc(-c3ccc(C=C(C#N)C#N)c5nn([Ti])nc35)cc2C4(c2ccc([Mo])cc2)c2ccc([Mo])cc2)c2nn([Ti])nc12
PTB7-Th,BTA1,-5.21,-3.542368421052632,1.5883333333333332,-1.667631578947368,-5.510000000000001,-3.5499999999999994,-1.9600000000000013,1.85,1:2,CF,DPE,80.0,PEDOT:PSS,Ca,0.06,0.05394,0.93,0.2,29.0,Cc1cc2c(-c3ccc([Cr])s3)c3sc(-c4sc(C)c5c(F)c(C(=O)O[Cr])sc45)cc3c(-c3ccc([Cr])s3)c2s1.CCN1C(=O)/C(=C/c2ccc(-c3cc4c(s3)-c3cc5c(cc3C4(c3ccc([Mo])cc3)c3ccc([Mo])cc3)-c3sc(-c4ccc(/C=C6\SC(=S)N(CC)C6=O)c6nn([Ti])nc46)cc3C5(c3ccc([Mo])cc3)c3ccc([Mo])cc3)c3nn([Ti])nc23)SC1=S,[C][C][=C][C][=C][Branch1][O][C][=C][C][=C][Branch1][C][Cr][S][Ring1][=Branch1][C][S][C][Branch2][Ring1][O][C][S][C][Branch1][C][C][=C][C][Branch1][C][F][=C][Branch1][#Branch1][C][=Branch1][C][=O][O][Cr][S][C][=Ring1][=C][Ring1][#Branch2][=C][C][=Ring2][Ring1][Ring1][C][Branch1][O][C][=C][C][=C][Branch1][C][Cr][S][Ring1][=Branch1][=C][Ring2][Ring2][Ring1][S][Ring2][Ring2][=Branch1].[C][C][N][C][=Branch1][C][=O][/C][=Branch2][#Branch2][#C][=C][/C][=C][C][=C][Branch2][=Branch2][#Branch2][C][=C][C][=C][Branch1][Ring2][S][Ring1][Branch1][C][=C][C][=C][Branch2][Ring1][S][C][=C][Ring1][=Branch1][C][Ring1][#Branch2][Branch1][N][C][=C][C][=C][Branch1][C][Mo][C][=C][Ring1][#Branch1][C][=C][C][=C][Branch1][C][Mo][C][=C][Ring1][#Branch1][C][S][C][Branch2][Ring2][Ring2][C][=C][C][=C][Branch1][P][/C][=C][\S][C][=Branch1][C][=S][N][Branch1][Ring1][C][C][C][Ring1][Branch2][=O][C][=N][N][Branch1][C][Ti][N][=C][Ring2][Ring1][Ring2][Ring1][=Branch1][=C][C][=Ring2][Ring1][=Branch2][C][Ring2][Ring2][=N][Branch1][N][C][=C][C][=C][Branch1][C][Mo][C][=C][Ring1][#Branch1][C][=C][C][=C][Branch1][C][Mo][C][=C][Ring1][#Branch1][C][=N][N][Branch1][C][Ti][N][=C][Ring2][=Branch1][N][Ring1][=Branch1][S][C][Ring2][#Branch1][Ring1][=S],{[$]c1cc2c(-c3ccc([Cr])s3)c3sc(-c4sc([$])c5c(F)c(C(=O)O[Cr])sc45)cc3c(-c3ccc([Cr])s3)c2s1}.CCN1C(=O)/C(=C/c2ccc(-c3cc4c(s3)-c3cc5c(cc3C4(c3ccc([Mo])cc3)c3ccc([Mo])cc3)-c3sc(-c4ccc(/C=C6\SC(=S)N(CC)C6=O)c6nn([Ti])nc46)cc3C5(c3ccc([Mo])cc3)c3ccc([Mo])cc3)c3nn([Ti])nc23)SC1=S
PTB7-Th,BTA2,-5.21,-3.542368421052632,1.5883333333333332,-1.667631578947368,-5.43,-3.3800000000000003,-2.0499999999999994,2.0,1:2,CF,DPE,80.0,PEDOT:PSS,Ca,0.01,0.013635,1.01,0.05,27.0,Cc1cc2c(-c3ccc([Cr])s3)c3sc(-c4sc(C)c5c(F)c(C(=O)O[Cr])sc45)cc3c(-c3ccc([Cr])s3)c2s1.CCCCCCCCn1nc2c(C=C3SC(=O)N(CC)C3=O)ccc(-c3cc4c(s3)-c3cc5c(cc3C4(c3ccc(CCCCCC)cc3)c3ccc(CCCCCC)cc3)-c3sc(-c4ccc(C=C6SC(=O)N(CC)C6=O)c6nn(CCCCCCCC)nc46)cc3C5(c3ccc(CCCCCC)cc3)c3ccc(CCCCCC)cc3)c2n1,[C][C][=C][C][=C][Branch1][O][C][=C][C][=C][Branch1][C][Cr][S][Ring1][=Branch1][C][S][C][Branch2][Ring1][O][C][S][C][Branch1][C][C][=C][C][Branch1][C][F][=C][Branch1][#Branch1][C][=Branch1][C][=O][O][Cr][S][C][=Ring1][=C][Ring1][#Branch2][=C][C][=Ring2][Ring1][Ring1][C][Branch1][O][C][=C][C][=C][Branch1][C][Cr][S][Ring1][=Branch1][=C][Ring2][Ring2][Ring1][S][Ring2][Ring2][=Branch1].[C][C][C][C][C][C][C][C][N][N][=C][C][Branch1][P][C][=C][S][C][=Branch1][C][=O][N][Branch1][Ring1][C][C][C][Ring1][Branch2][=O][=C][C][=C][Branch2][O][Branch1][C][=C][C][=C][Branch1][Ring2][S][Ring1][Branch1][C][=C][C][=C][Branch2][Ring2][#Branch2][C][=C][Ring1][=Branch1][C][Ring1][#Branch2][Branch1][P][C][=C][C][=C][Branch1][#Branch1][C][C][C][C][C][C][C][=C][Ring1][N][C][=C][C][=C][Branch1][#Branch1][C][C][C][C][C][C][C][=C][Ring1][N][C][S][C][Branch2][Ring2][O][C][=C][C][=C][Branch1][P][C][=C][S][C][=Branch1][C][=O][N][Branch1][Ring1][C][C][C][Ring1][Branch2][=O][C][=N][N][Branch1][=Branch2][C][C][C][C][C][C][C][C][N][=C][Ring2][Ring1][O][Ring1][=N][=C][C][=Ring2][Ring1][S][C][Ring2][Branch1][=C][Branch1][P][C][=C][C][=C][Branch1][#Branch1][C][C][C][C][C][C][C][=C][Ring1][N][C][=C][C][=C][Branch1][#Branch1][C][C][C][C][C][C][C][=C][Ring1][N][C][Ring2][Branch2][=N][=N][Ring2][Branch2][S],{[$]c1cc2c(-c3ccc([Cr])s3)c3sc(-c4sc([$])c5c(F)c(C(=O)O[Cr])sc45)cc3c(-c3ccc([Cr])s3)c2s1}.CCCCCCCCn1nc2c(C=C3SC(=O)N(CC)C3=O)ccc(-c3cc4c(s3)-c3cc5c(cc3C4(c3ccc(CCCCCC)cc3)c3ccc(CCCCCC)cc3)-c3sc(-c4ccc(C=C6SC(=O)N(CC)C6=O)c6nn(CCCCCCCC)nc46)cc3C5(c3ccc(CCCCCC)cc3)c3ccc(CCCCCC)cc3)c2n1
P3HT,BTA1,-5.057777777777777,-2.989444444444445,1.9,-2.068333333333332,-5.510000000000001,-3.5499999999999994,-1.9600000000000013,1.85,1:0.6,CF,CN,100.0,PEDOT:PSS,Ca,5.24,5.24076,1.02,7.34,70.0,CCCCCCc1cc(-c2sc(-c3sc(-c4sc(C)cc4CCCCCC)cc3CCCCCC)cc2CCCCCC)sc1C.CCN1C(=O)/C(=C/c2ccc(-c3cc4c(s3)-c3cc5c(cc3C4(c3ccc([Mo])cc3)c3ccc([Mo])cc3)-c3sc(-c4ccc(/C=C6\SC(=S)N(CC)C6=O)c6nn([Ti])nc46)cc3C5(c3ccc([Mo])cc3)c3ccc([Mo])cc3)c3nn([Ti])nc23)SC1=S,[C][C][C][C][C][C][C][C][=C][Branch2][Ring2][P][C][S][C][Branch2][Ring1][S][C][S][C][Branch1][P][C][S][C][Branch1][C][C][=C][C][=Ring1][=Branch1][C][C][C][C][C][C][=C][C][=Ring1][P][C][C][C][C][C][C][=C][C][=Ring2][Ring1][N][C][C][C][C][C][C][S][C][=Ring2][Ring2][#Branch1][C].[C][C][N][C][=Branch1][C][=O][/C][=Branch2][#Branch2][#C][=C][/C][=C][C][=C][Branch2][=Branch2][#Branch2][C][=C][C][=C][Branch1][Ring2][S][Ring1][Branch1][C][=C][C][=C][Branch2][Ring1][S][C][=C][Ring1][=Branch1][C][Ring1][#Branch2][Branch1][N][C][=C][C][=C][Branch1][C][Mo][C][=C][Ring1][#Branch1][C][=C][C][=C][Branch1][C][Mo][C][=C][Ring1][#Branch1][C][S][C][Branch2][Ring2][Ring2][C][=C][C][=C][Branch1][P][/C][=C][\S][C][=Branch1][C][=S][N][Branch1][Ring1][C][C][C][Ring1][Branch2][=O][C][=N][N][Branch1][C][Ti][N][=C][Ring2][Ring1][Ring2][Ring1][=Branch1][=C][C][=Ring2][Ring1][=Branch2][C][Ring2][Ring2][=N][Branch1][N][C][=C][C][=C][Branch1][C][Mo][C][=C][Ring1][#Branch1][C][=C][C][=C][Branch1][C][Mo][C][=C][Ring1][#Branch1][C][=N][N][Branch1][C][Ti][N][=C][Ring2][=Branch1][N][Ring1][=Branch1][S][C][Ring2][#Branch1][Ring1][=S],{CCCCCCc1cc(-c2sc(-c3sc(-c4sc([$])cc4CCCCCC)cc3CCCCCC)cc2CCCCCC)sc1[$]}.CCN1C(=O)/C(=C/c2ccc(-c3cc4c(s3)-c3cc5c(cc3C4(c3ccc([Mo])cc3)c3ccc([Mo])cc3)-c3sc(-c4ccc(/C=C6\SC(=S)N(CC)C6=O)c6nn([Ti])nc46)cc3C5(c3ccc([Mo])cc3)c3ccc([Mo])cc3)c3nn([Ti])nc23)SC1=S
P3HT,BT2,-5.057777777777777,-2.989444444444445,1.9,-2.068333333333332,-5.5,-3.53,-1.97,1.82,1.5:1,CF,_,150.0,PEDOT:PSS,Ca,4.93,4.932741,0.97,7.59,67.0,CCCCCCc1cc(-c2sc(-c3sc(-c4sc(C)cc4CCCCCC)cc3CCCCCC)cc2CCCCCC)sc1C.CCN1C(=O)S/C(=C/c2ccc(-c3cc4c(s3)-c3cc5c(cc3C4(c3ccc([Mo])cc3)c3ccc([Mo])cc3)-c3sc(-c4ccc(/C=C6/SC(=O)N(CC)C6=O)c6nsnc46)cc3C5(c3ccc([Mo])cc3)c3ccc([Mo])cc3)c3nsnc23)C1=O,[C][C][C][C][C][C][C][C][=C][Branch2][Ring2][P][C][S][C][Branch2][Ring1][S][C][S][C][Branch1][P][C][S][C][Branch1][C][C][=C][C][=Ring1][=Branch1][C][C][C][C][C][C][=C][C][=Ring1][P][C][C][C][C][C][C][=C][C][=Ring2][Ring1][N][C][C][C][C][C][C][S][C][=Ring2][Ring2][#Branch1][C].[C][C][N][C][=Branch1][C][=O][S][/C][=Branch2][#Branch2][=Branch2][=C][/C][=C][C][=C][Branch2][=Branch2][#Branch1][C][=C][C][=C][Branch1][Ring2][S][Ring1][Branch1][C][=C][C][=C][Branch2][Ring1][S][C][=C][Ring1][=Branch1][C][Ring1][#Branch2][Branch1][N][C][=C][C][=C][Branch1][C][Mo][C][=C][Ring1][#Branch1][C][=C][C][=C][Branch1][C][Mo][C][=C][Ring1][#Branch1][C][S][C][Branch2][Ring1][P][C][=C][C][=C][Branch1][P][/C][=C][/S][C][=Branch1][C][=O][N][Branch1][Ring1][C][C][C][Ring1][Branch2][=O][C][=N][S][N][=C][Ring2][Ring1][Ring1][Ring1][Branch1][=C][C][=Ring2][Ring1][Branch2][C][Ring2][Ring2][N][Branch1][N][C][=C][C][=C][Branch1][C][Mo][C][=C][Ring1][#Branch1][C][=C][C][=C][Branch1][C][Mo][C][=C][Ring1][#Branch1][C][=N][S][N][=C][Ring2][=Branch1][#Branch2][Ring1][Branch1][C][Ring2][=Branch1][P][=O],{CCCCCCc1cc(-c2sc(-c3sc(-c4sc([$])cc4CCCCCC)cc3CCCCCC)cc2CCCCCC)sc1[$]}.CCN1C(=O)S/C(=C/c2ccc(-c3cc4c(s3)-c3cc5c(cc3C4(c3ccc([Mo])cc3)c3ccc([Mo])cc3)-c3sc(-c4ccc(/C=C6/SC(=O)N(CC)C6=O)c6nsnc46)cc3C5(c3ccc([Mo])cc3)c3ccc([Mo])cc3)c3nsnc23)C1=O
P3HT,BT2b,-5.057777777777777,-2.989444444444445,1.9,-2.068333333333332,-5.41,-3.56,-1.85,1.75,1:1,CF,_,150.0,PEDOT:PSS,Ca,6.08,6.084144,0.92,10.02,66.0,CCCCCCc1cc(-c2sc(-c3sc(-c4sc(C)cc4CCCCCC)cc3CCCCCC)cc2CCCCCC)sc1C.CCN1C(=O)S/C(=C/c2ccc(-c3cc4c(s3)-c3cc5c(cc3C4([Ti])[Ti])-c3sc(-c4ccc(/C=C6/SC(=O)N(CC)C6=O)c6nsnc46)cc3C5([Ti])[Ti])c3nsnc23)C1=O,[C][C][C][C][C][C][C][C][=C][Branch2][Ring2][P][C][S][C][Branch2][Ring1][S][C][S][C][Branch1][P][C][S][C][Branch1][C][C][=C][C][=Ring1][=Branch1][C][C][C][C][C][C][=C][C][=Ring1][P][C][C][C][C][C][C][=C][C][=Ring2][Ring1][N][C][C][C][C][C][C][S][C][=Ring2][Ring2][#Branch1][C].[C][C][N][C][=Branch1][C][=O][S][/C][=Branch2][#Branch1][S][=C][/C][=C][C][=C][Branch2][=Branch1][=C][C][=C][C][=C][Branch1][Ring2][S][Ring1][Branch1][C][=C][C][=C][Branch1][N][C][=C][Ring1][=Branch1][C][Ring1][#Branch2][Branch1][C][Ti][Ti][C][S][C][Branch2][Ring1][P][C][=C][C][=C][Branch1][P][/C][=C][/S][C][=Branch1][C][=O][N][Branch1][Ring1][C][C][C][Ring1][Branch2][=O][C][=N][S][N][=C][Ring2][Ring1][Ring1][Ring1][Branch1][=C][C][=Ring2][Ring1][Branch2][C][Ring2][Ring1][S][Branch1][C][Ti][Ti][C][=N][S][N][=C][Ring2][Branch1][C][Ring1][Branch1][C][Ring2][Branch1][=Branch2][=O],{CCCCCCc1cc(-c2sc(-c3sc(-c4sc([$])cc4CCCCCC)cc3CCCCCC)cc2CCCCCC)sc1[$]}.CCN1C(=O)S/C(=C/c2ccc(-c3cc4c(s3)-c3cc5c(cc3C4([Ti])[Ti])-c3sc(-c4ccc(/C=C6/SC(=O)N(CC)C6=O)c6nsnc46)cc3C5([Ti])[Ti])c3nsnc23)C1=O