Donor,Acceptor,HOMO_D_eV,LUMO_D_eV,HOMO_A_eV,LUMO_A_eV,D_A_ratio_m_m,solvent,solvent_additive,annealing_temperature,hole_contact_layer,electron_contact_layer,PCE_percent,calc_PCE_percent,Voc_V,Jsc_mA_cm_pow_neg2,FF_percent,DA_SMILES,DA_SELFIES,DA_BigSMILES
PTB7-Th,DTCC-IC,-5.204782608695651,-3.5391891891891896,-5.5,-3.87,1.0,CF,CN,100.0,PEDOT:PSS,Ca,6.0,6.0,0.95,11.23,56.2,CCCCC(CC)COC(=O)c1sc2c(-c3cc4c(-c5ccc(CC(CC)CCCC)s5)c5sc(C)cc5c(-c5ccc(CC(CC)CCCC)s5)c4s3)sc(C)c2c1F.CCCCCCCCOc1ccc(C2(c3ccc(OCCCCCCCC)cc3)c3cc4c5cc6c(cc5n(CCCCCCCC)c4cc3-c3sc(/C=C4\C(=O)c5cc(F)c(F)cc5C4=C(C#N)C#N)cc32)-c2sc(/C=C3\C(=O)c4cc(F)c(F)cc4C3=C(C#N)C#N)cc2C6(c2ccc(OCCCCCCCC)cc2)c2ccc(OCCCCCCCC)cc2)cc1,[C][C][C][C][C][Branch1][Ring1][C][C][C][O][C][=Branch1][C][=O][C][S][C][=C][Branch2][=Branch1][Ring2][C][=C][C][=C][Branch2][Ring1][Ring2][C][=C][C][=C][Branch1][O][C][C][Branch1][Ring1][C][C][C][C][C][C][S][Ring1][=N][C][S][C][Branch1][C][C][=C][C][=Ring1][=Branch1][C][Branch2][Ring1][Ring2][C][=C][C][=C][Branch1][O][C][C][Branch1][Ring1][C][C][C][C][C][C][S][Ring1][=N][=C][Ring2][Ring2][Ring2][S][Ring2][Ring2][#Branch1][S][C][Branch1][C][C][=C][Ring2][Ring2][=N][C][=Ring2][Ring2][S][F].[C][C][C][C][C][C][C][C][O][C][=C][C][=C][Branch2][=N][O][C][Branch2][Ring1][Ring2][C][=C][C][=C][Branch1][#Branch2][O][C][C][C][C][C][C][C][C][C][=C][Ring1][#C][C][=C][C][C][=C][C][=C][Branch2][=Branch1][Ring2][C][=C][Ring1][=Branch1][N][Branch1][=Branch2][C][C][C][C][C][C][C][C][C][=Ring1][P][C][=C][Ring2][Ring1][Branch1][C][S][C][Branch2][Ring1][#C][/C][=C][\C][=Branch1][C][=O][C][=C][C][Branch1][C][F][=C][Branch1][C][F][C][=C][Ring1][Branch2][C][Ring1][N][=C][Branch1][Ring1][C][#N][C][#N][=C][C][=Ring2][Ring1][#Branch1][Ring2][Branch1][N][C][S][C][Branch2][Ring1][#C][/C][=C][\C][=Branch1][C][=O][C][=C][C][Branch1][C][F][=C][Branch1][C][F][C][=C][Ring1][Branch2][C][Ring1][N][=C][Branch1][Ring1][C][#N][C][#N][=C][C][=Ring2][Ring1][#Branch1][C][Ring2][Branch1][#C][Branch2][Ring1][Ring2][C][=C][C][=C][Branch1][#Branch2][O][C][C][C][C][C][C][C][C][C][=C][Ring1][#C][C][=C][C][=C][Branch1][#Branch2][O][C][C][C][C][C][C][C][C][C][=C][Ring1][#C][C][=C][Ring2][=Branch2][Branch2],{CCCCC(CC)COC(=O)c1sc2c(-c3cc4c(-c5ccc(CC(CC)CCCC)s5)c5sc([$])cc5c(-c5ccc(CC(CC)CCCC)s5)c4s3)sc([$])c2c1F}.CCCCCCCCOc1ccc(C2(c3ccc(OCCCCCCCC)cc3)c3cc4c5cc6c(cc5n(CCCCCCCC)c4cc3-c3sc(/C=C4\C(=O)c5cc(F)c(F)cc5C4=C(C#N)C#N)cc32)-c2sc(/C=C3\C(=O)c4cc(F)c(F)cc4C3=C(C#N)C#N)cc2C6(c2ccc(OCCCCCCCC)cc2)c2ccc(OCCCCCCCC)cc2)cc1
P3HT,DNIT-TT2T,-5.057777777777777,-2.989444444444445,-5.94,-3.75,1.0,o-DCB,_,130.0,PEDOT:PSS,Ca,1.25,1.25,0.88,3.28,43.47,CCCCCCc1cc(-c2sc(-c3sc(-c4sc(C)cc4CCCCCC)cc3CCCCCC)cc2CCCCCC)sc1C.CCCCCCc1ccc(-c2c(-c3ccc(-c4ccc5c6c(cccc46)C(=O)N(CC(CC)CCCC)C5=O)s3)sc3c(-c4ccc(CCCCCC)s4)c(-c4ccc(-c5ccc6c7c(cccc57)C(=O)N(CC(CC)CCCC)C6=O)s4)sc23)s1,[C][C][C][C][C][C][C][C][=C][Branch2][Ring2][P][C][S][C][Branch2][Ring1][S][C][S][C][Branch1][P][C][S][C][Branch1][C][C][=C][C][=Ring1][=Branch1][C][C][C][C][C][C][=C][C][=Ring1][P][C][C][C][C][C][C][=C][C][=Ring2][Ring1][N][C][C][C][C][C][C][S][C][=Ring2][Ring2][#Branch1][C].[C][C][C][C][C][C][C][=C][C][=C][Branch2][#Branch2][Branch2][C][=C][Branch2][Branch1][C][C][=C][C][=C][Branch2][Ring2][#Branch1][C][=C][C][=C][C][=C][Branch1][=Branch2][C][=C][C][=C][Ring1][#Branch2][Ring1][=Branch1][C][=Branch1][C][=O][N][Branch1][O][C][C][Branch1][Ring1][C][C][C][C][C][C][C][Ring2][Ring1][Ring1][=O][S][Ring2][Ring1][N][S][C][C][Branch1][S][C][=C][C][=C][Branch1][#Branch1][C][C][C][C][C][C][S][Ring1][O][=C][Branch2][Branch1][C][C][=C][C][=C][Branch2][Ring2][#Branch1][C][=C][C][=C][C][=C][Branch1][=Branch2][C][=C][C][=C][Ring1][#Branch2][Ring1][=Branch1][C][=Branch1][C][=O][N][Branch1][O][C][C][Branch1][Ring1][C][C][C][C][C][C][C][Ring2][Ring1][Ring1][=O][S][Ring2][Ring1][N][S][C][Ring2][=Branch1][O][=Ring2][Ring2][N][S][Ring2][=Branch1][S],{CCCCCCc1cc(-c2sc(-c3sc(-c4sc([$])cc4CCCCCC)cc3CCCCCC)cc2CCCCCC)sc1[$]}.CCCCCCc1ccc(-c2c(-c3ccc(-c4ccc5c6c(cccc46)C(=O)N(CC(CC)CCCC)C5=O)s3)sc3c(-c4ccc(CCCCCC)s4)c(-c4ccc(-c5ccc6c7c(cccc57)C(=O)N(CC(CC)CCCC)C6=O)s4)sc23)s1
P1_BDT-TBT,PY1,-5.1,-3.48,-5.27,-4.0,0.5,CF,DIO,25.0,PEDOT:PSS,PFN-Br,4.89,4.89,0.83,10.53,56.0,CCCCCCCCCCCCSOc1c2cc(-c3ccc(-c4ccc(-c5ccc(C)s5)c5nsnc45)s3)sc2c(OSCCCCCCCCCCCC)c2cc(C)sc12.CCCCCCCCCCCCCCCCCn1c2cc(-c3sc(-c4sc(/C=C5\C(=O)N(CCCC)C(=O)C(C#N)C5C)cc4CCCCCC)cc3CCCCCC)sc2c2sc(-c3sc(-c4sc(/C=C5\C(=O)N(CCCC)C(=O)C(C#N)C5C)cc4CCCCCC)cc3CCCCCC)cc21,[C][C][C][C][C][C][C][C][C][C][C][C][S][O][C][=C][C][=C][Branch2][Ring2][Branch1][C][=C][C][=C][Branch2][Ring1][#Branch2][C][=C][C][=C][Branch1][O][C][=C][C][=C][Branch1][C][C][S][Ring1][=Branch1][C][=N][S][N][=C][Ring1][#C][Ring1][Branch1][S][Ring2][Ring1][Ring2][S][C][Ring2][Ring1][=Branch2][=C][Branch1][#C][O][S][C][C][C][C][C][C][C][C][C][C][C][C][C][C][=C][Branch1][C][C][S][C][Ring2][Ring2][#C][=Ring1][=Branch1].[C][C][C][C][C][C][C][C][C][C][C][C][C][C][C][C][C][N][C][C][=C][Branch2][Branch1][=N][C][S][C][Branch2][Ring2][N][C][S][C][Branch2][Ring1][O][/C][=C][\C][=Branch1][C][=O][N][Branch1][Branch1][C][C][C][C][C][=Branch1][C][=O][C][Branch1][Ring1][C][#N][C][Ring1][=C][C][=C][C][=Ring2][Ring1][Branch1][C][C][C][C][C][C][=C][C][=Ring2][Ring1][S][C][C][C][C][C][C][S][C][=Ring2][Ring2][O][C][S][C][Branch2][Branch1][=N][C][S][C][Branch2][Ring2][N][C][S][C][Branch2][Ring1][O][/C][=C][\C][=Branch1][C][=O][N][Branch1][Branch1][C][C][C][C][C][=Branch1][C][=O][C][Branch1][Ring1][C][#N][C][Ring1][=C][C][=C][C][=Ring2][Ring1][Branch1][C][C][C][C][C][C][=C][C][=Ring2][Ring1][S][C][C][C][C][C][C][=C][C][=Ring2][Ring2][O][Ring2][#Branch1][#Branch1],{CCCCCCCCCCCCSOc1c2cc(-c3ccc(-c4ccc(-c5ccc([$])s5)c5nsnc45)s3)sc2c(OSCCCCCCCCCCCC)c2cc([$])sc12}.CCCCCCCCCCCCCCCCCn1c2cc(-c3sc(-c4sc(/C=C5\C(=O)N(CCCC)C(=O)C(C#N)C5C)cc4CCCCCC)cc3CCCCCC)sc2c2sc(-c3sc(-c4sc(/C=C5\C(=O)N(CCCC)C(=O)C(C#N)C5C)cc4CCCCCC)cc3CCCCCC)cc21
P1_BDT-TBT,DCI-2,-5.1,-3.48,-5.24,-4.05,0.5,CF,DIO,25.0,PEDOT:PSS,PFN-Br,6.94,6.94,0.8,13.77,63.0,CCCCCCCCCCCCSOc1c2cc(-c3ccc(-c4ccc(-c5ccc(C)s5)c5nsnc45)s3)sc2c(OSCCCCCCCCCCCC)c2cc(C)sc12.CCCCCCCCCC(CCCCCCC)n1c2cc(-c3sc(-c4sc(/C=C5\C(=O)c6ccccc6C5=C(C#N)C#N)cc4CCCCCC)cc3CCCCCC)sc2c2sc(-c3sc(-c4sc(/C=C5\C(=O)c6ccccc6C5=C(C#N)C#N)cc4CCCCCC)cc3CCCCCC)cc21,[C][C][C][C][C][C][C][C][C][C][C][C][S][O][C][=C][C][=C][Branch2][Ring2][Branch1][C][=C][C][=C][Branch2][Ring1][#Branch2][C][=C][C][=C][Branch1][O][C][=C][C][=C][Branch1][C][C][S][Ring1][=Branch1][C][=N][S][N][=C][Ring1][#C][Ring1][Branch1][S][Ring2][Ring1][Ring2][S][C][Ring2][Ring1][=Branch2][=C][Branch1][#C][O][S][C][C][C][C][C][C][C][C][C][C][C][C][C][C][=C][Branch1][C][C][S][C][Ring2][Ring2][#C][=Ring1][=Branch1].[C][C][C][C][C][C][C][C][C][C][Branch1][Branch2][C][C][C][C][C][C][C][N][C][C][=C][Branch2][Branch1][O][C][S][C][Branch2][Ring2][#Branch2][C][S][C][Branch2][Ring1][=Branch2][/C][=C][\C][=Branch1][C][=O][C][=C][C][=C][C][=C][Ring1][=Branch1][C][Ring1][#Branch2][=C][Branch1][Ring1][C][#N][C][#N][=C][C][=Ring2][Ring1][Branch1][C][C][C][C][C][C][=C][C][=Ring2][Ring1][S][C][C][C][C][C][C][S][C][=Ring2][Ring2][O][C][S][C][Branch2][Branch1][O][C][S][C][Branch2][Ring2][#Branch2][C][S][C][Branch2][Ring1][=Branch2][/C][=C][\C][=Branch1][C][=O][C][=C][C][=C][C][=C][Ring1][=Branch1][C][Ring1][#Branch2][=C][Branch1][Ring1][C][#N][C][#N][=C][C][=Ring2][Ring1][Branch1][C][C][C][C][C][C][=C][C][=Ring2][Ring1][S][C][C][C][C][C][C][=C][C][=Ring2][Ring2][O][Ring2][#Branch1][#Branch1],{CCCCCCCCCCCCSOc1c2cc(-c3ccc(-c4ccc(-c5ccc([$])s5)c5nsnc45)s3)sc2c(OSCCCCCCCCCCCC)c2cc([$])sc12}.CCCCCCCCCC(CCCCCCC)n1c2cc(-c3sc(-c4sc(/C=C5\C(=O)c6ccccc6C5=C(C#N)C#N)cc4CCCCCC)cc3CCCCCC)sc2c2sc(-c3sc(-c4sc(/C=C5\C(=O)c6ccccc6C5=C(C#N)C#N)cc4CCCCCC)cc3CCCCCC)cc21
PBDTTT-C-T,DC-IDT2F,-5.128,-3.268,-5.44,-3.88,2.0,o-DCB,_,25.0,MoOx,PEIE,3.08,3.08,0.96,6.32,50.8,CCCCC(CC)CC(=O)c1cc2c(C)sc(-c3cc4c(-c5ccc(CC(CC)CCCC)s5)c5sc(C)cc5c(-c5ccc(CC(CC)CCCC)s5)c4s3)c2s1.CCCCCCc1ccc(C2(c3ccc(CCCCCC)cc3)c3cc(-c4ccc(/C=C5\C(=O)c6ccccc6C5=C(C#N)C#N)o4)ccc3-c3cc4c(cc32)-c2ccc(-c3ccc(/C=C5\C(=O)c6ccccc6C5=C(C#N)C#N)o3)cc2C4(c2ccc(CCCCCC)cc2)c2ccc(CCCCCC)cc2)cc1,[C][C][C][C][C][Branch1][Ring1][C][C][C][C][=Branch1][C][=O][C][=C][C][=C][Branch1][C][C][S][C][Branch2][=Branch1][Ring2][C][=C][C][=C][Branch2][Ring1][Ring2][C][=C][C][=C][Branch1][O][C][C][Branch1][Ring1][C][C][C][C][C][C][S][Ring1][=N][C][S][C][Branch1][C][C][=C][C][=Ring1][=Branch1][C][Branch2][Ring1][Ring2][C][=C][C][=C][Branch1][O][C][C][Branch1][Ring1][C][C][C][C][C][C][S][Ring1][=N][=C][Ring2][Ring2][Ring2][S][Ring2][Ring2][#Branch1][=C][Ring2][Ring2][=N][S][Ring2][Ring2][S].[C][C][C][C][C][C][C][=C][C][=C][Branch2][N][Branch1][C][Branch1][P][C][=C][C][=C][Branch1][#Branch1][C][C][C][C][C][C][C][=C][Ring1][N][C][=C][C][Branch2][Ring2][Ring2][C][=C][C][=C][Branch2][Ring1][=Branch2][/C][=C][\C][=Branch1][C][=O][C][=C][C][=C][C][=C][Ring1][=Branch1][C][Ring1][#Branch2][=C][Branch1][Ring1][C][#N][C][#N][O][Ring2][Ring1][Branch1][=C][C][=C][Ring2][Ring1][O][C][=C][C][=C][Branch1][Branch2][C][=C][Ring1][=Branch1][Ring2][Ring2][=C][C][=C][C][=C][Branch2][Ring2][Ring2][C][=C][C][=C][Branch2][Ring1][=Branch2][/C][=C][\C][=Branch1][C][=O][C][=C][C][=C][C][=C][Ring1][=Branch1][C][Ring1][#Branch2][=C][Branch1][Ring1][C][#N][C][#N][O][Ring2][Ring1][Branch1][C][=C][Ring2][Ring1][O][C][Ring2][Ring1][S][Branch1][P][C][=C][C][=C][Branch1][#Branch1][C][C][C][C][C][C][C][=C][Ring1][N][C][=C][C][=C][Branch1][#Branch1][C][C][C][C][C][C][C][=C][Ring1][N][C][=C][Ring2][Branch2][Branch2],{CCCCC(CC)CC(=O)c1cc2c([$])sc(-c3cc4c(-c5ccc(CC(CC)CCCC)s5)c5sc([$])cc5c(-c5ccc(CC(CC)CCCC)s5)c4s3)c2s1}.CCCCCCc1ccc(C2(c3ccc(CCCCCC)cc3)c3cc(-c4ccc(/C=C5\C(=O)c6ccccc6C5=C(C#N)C#N)o4)ccc3-c3cc4c(cc32)-c2ccc(-c3ccc(/C=C5\C(=O)c6ccccc6C5=C(C#N)C#N)o3)cc2C4(c2ccc(CCCCCC)cc2)c2ccc(CCCCCC)cc2)cc1
PTB7-Th,TIM-IDT,-5.204782608695651,-3.5391891891891896,-5.36,-4.01,1.0,o-DCB,_,25.0,PEDOT:PSS,Ca,1.63,1.44,0.6,5.26,45.53,CCCCC(CC)COC(=O)c1sc2c(-c3cc4c(-c5ccc(CC(CC)CCCC)s5)c5sc(C)cc5c(-c5ccc(CC(CC)CCCC)s5)c4s3)sc(C)c2c1F.CCCCCCc1ccc(C2(c3ccc(CCCCCC)cc3)c3cc4c(cc3-c3sc(-c5cc6c(s5)C(=C(C#N)C#N)C(=O)N6CC(CC)CCCC)cc32)C(c2ccc(CCCCCC)cc2)(c2ccc(CCCCCC)cc2)c2cc(-c3cc5c(s3)C(=C(C#N)C#N)C(=O)N5CC(CC)CCCC)sc2-4)cc1,[C][C][C][C][C][Branch1][Ring1][C][C][C][O][C][=Branch1][C][=O][C][S][C][=C][Branch2][=Branch1][Ring2][C][=C][C][=C][Branch2][Ring1][Ring2][C][=C][C][=C][Branch1][O][C][C][Branch1][Ring1][C][C][C][C][C][C][S][Ring1][=N][C][S][C][Branch1][C][C][=C][C][=Ring1][=Branch1][C][Branch2][Ring1][Ring2][C][=C][C][=C][Branch1][O][C][C][Branch1][Ring1][C][C][C][C][C][C][S][Ring1][=N][=C][Ring2][Ring2][Ring2][S][Ring2][Ring2][#Branch1][S][C][Branch1][C][C][=C][Ring2][Ring2][=N][C][=Ring2][Ring2][S][F].[C][C][C][C][C][C][C][=C][C][=C][Branch2][N][Branch2][C][Branch1][P][C][=C][C][=C][Branch1][#Branch1][C][C][C][C][C][C][C][=C][Ring1][N][C][=C][C][=C][Branch2][Branch1][#Branch1][C][=C][Ring1][=Branch1][C][S][C][Branch2][Ring2][Branch1][C][=C][C][=C][Branch1][Ring2][S][Ring1][Branch1][C][=Branch1][Branch2][=C][Branch1][Ring1][C][#N][C][#N][C][=Branch1][C][=O][N][Ring1][N][C][C][Branch1][Ring1][C][C][C][C][C][C][=C][C][=Ring2][Ring1][O][Ring2][Ring2][=C][C][Branch1][P][C][=C][C][=C][Branch1][#Branch1][C][C][C][C][C][C][C][=C][Ring1][N][Branch1][P][C][=C][C][=C][Branch1][#Branch1][C][C][C][C][C][C][C][=C][Ring1][N][C][C][=C][Branch2][Ring2][Branch1][C][=C][C][=C][Branch1][Ring2][S][Ring1][Branch1][C][=Branch1][Branch2][=C][Branch1][Ring1][C][#N][C][#N][C][=Branch1][C][=O][N][Ring1][N][C][C][Branch1][Ring1][C][C][C][C][C][C][S][C][=Ring2][Ring1][O][Ring2][#Branch1][Ring1][C][=C][Ring2][Branch2][Branch2],{CCCCC(CC)COC(=O)c1sc2c(-c3cc4c(-c5ccc(CC(CC)CCCC)s5)c5sc([$])cc5c(-c5ccc(CC(CC)CCCC)s5)c4s3)sc([$])c2c1F}.CCCCCCc1ccc(C2(c3ccc(CCCCCC)cc3)c3cc4c(cc3-c3sc(-c5cc6c(s5)C(=C(C#N)C#N)C(=O)N6CC(CC)CCCC)cc32)C(c2ccc(CCCCCC)cc2)(c2ccc(CCCCCC)cc2)c2cc(-c3cc5c(s3)C(=C(C#N)C#N)C(=O)N5CC(CC)CCCC)sc2-4)cc1
PTB7-Th,COTIC-4F,-5.204782608695651,-3.5391891891891896,-5.26,-4.16,0.667,CB,CN,25.0,MoOx,ZnO,6.4,6.4,0.56,20.3,56.3,CCCCC(CC)COC(=O)c1sc2c(-c3cc4c(-c5ccc(CC(CC)CCCC)s5)c5sc(C)cc5c(-c5ccc(CC(CC)CCCC)s5)c4s3)sc(C)c2c1F.CCCCC(CC)COc1cc(/C=C2\C(=O)c3ccccc3C2=C(C#N)C#N)sc1-c1cc2c(s1)-c1sc(-c3sc(/C=C4\C(=O)c5ccccc5C4=C(C#N)C#N)cc3OCC(CC)CCCC)cc1C2(CC(CC)CCCC)CC(CC)CCCC,[C][C][C][C][C][Branch1][Ring1][C][C][C][O][C][=Branch1][C][=O][C][S][C][=C][Branch2][=Branch1][Ring2][C][=C][C][=C][Branch2][Ring1][Ring2][C][=C][C][=C][Branch1][O][C][C][Branch1][Ring1][C][C][C][C][C][C][S][Ring1][=N][C][S][C][Branch1][C][C][=C][C][=Ring1][=Branch1][C][Branch2][Ring1][Ring2][C][=C][C][=C][Branch1][O][C][C][Branch1][Ring1][C][C][C][C][C][C][S][Ring1][=N][=C][Ring2][Ring2][Ring2][S][Ring2][Ring2][#Branch1][S][C][Branch1][C][C][=C][Ring2][Ring2][=N][C][=Ring2][Ring2][S][F].[C][C][C][C][C][Branch1][Ring1][C][C][C][O][C][C][=C][Branch2][Ring1][=Branch2][/C][=C][\C][=Branch1][C][=O][C][=C][C][=C][C][=C][Ring1][=Branch1][C][Ring1][#Branch2][=C][Branch1][Ring1][C][#N][C][#N][S][C][=Ring2][Ring1][Branch1][C][=C][C][=C][Branch1][Ring2][S][Ring1][Branch1][C][S][C][Branch2][Ring2][#C][C][S][C][Branch2][Ring1][=Branch2][/C][=C][\C][=Branch1][C][=O][C][=C][C][=C][C][=C][Ring1][=Branch1][C][Ring1][#Branch2][=C][Branch1][Ring1][C][#N][C][#N][=C][C][=Ring2][Ring1][Branch1][O][C][C][Branch1][Ring1][C][C][C][C][C][C][=C][C][=Ring2][Ring2][Ring1][C][Ring2][Ring2][#Branch1][Branch1][O][C][C][Branch1][Ring1][C][C][C][C][C][C][C][C][Branch1][Ring1][C][C][C][C][C][C],{CCCCC(CC)COC(=O)c1sc2c(-c3cc4c(-c5ccc(CC(CC)CCCC)s5)c5sc([$])cc5c(-c5ccc(CC(CC)CCCC)s5)c4s3)sc([$])c2c1F}.CCCCC(CC)COc1cc(/C=C2\C(=O)c3ccccc3C2=C(C#N)C#N)sc1-c1cc2c(s1)-c1sc(-c3sc(/C=C4\C(=O)c5ccccc5C4=C(C#N)C#N)cc3OCC(CC)CCCC)cc1C2(CC(CC)CCCC)CC(CC)CCCC
PTB7-Th,SiOTIC-4F,-5.204782608695651,-3.5391891891891896,-5.28,-4.11,0.667,CF,CN,25.0,MoOx,ZnO,8.6,8.62,0.65,21.6,61.4,CCCCC(CC)COC(=O)c1sc2c(-c3cc4c(-c5ccc(CC(CC)CCCC)s5)c5sc(C)cc5c(-c5ccc(CC(CC)CCCC)s5)c4s3)sc(C)c2c1F.CCCCC(CC)COc1cc(/C=C2\C(=O)c3cc(F)c(F)cc3C2=C(C#N)C#N)sc1-c1cc2c(s1)-c1sc(-c3sc(/C=C4\C(=O)c5cc(F)c(F)cc5C4=C(C#N)C#N)cc3OCC(CC)CCCC)cc1[Si]2(CC(CC)CCCC)CC(CC)CCCC,[C][C][C][C][C][Branch1][Ring1][C][C][C][O][C][=Branch1][C][=O][C][S][C][=C][Branch2][=Branch1][Ring2][C][=C][C][=C][Branch2][Ring1][Ring2][C][=C][C][=C][Branch1][O][C][C][Branch1][Ring1][C][C][C][C][C][C][S][Ring1][=N][C][S][C][Branch1][C][C][=C][C][=Ring1][=Branch1][C][Branch2][Ring1][Ring2][C][=C][C][=C][Branch1][O][C][C][Branch1][Ring1][C][C][C][C][C][C][S][Ring1][=N][=C][Ring2][Ring2][Ring2][S][Ring2][Ring2][#Branch1][S][C][Branch1][C][C][=C][Ring2][Ring2][=N][C][=Ring2][Ring2][S][F].[C][C][C][C][C][Branch1][Ring1][C][C][C][O][C][C][=C][Branch2][Ring1][#C][/C][=C][\C][=Branch1][C][=O][C][=C][C][Branch1][C][F][=C][Branch1][C][F][C][=C][Ring1][Branch2][C][Ring1][N][=C][Branch1][Ring1][C][#N][C][#N][S][C][=Ring2][Ring1][#Branch1][C][=C][C][=C][Branch1][Ring2][S][Ring1][Branch1][C][S][C][Branch2][Branch1][Branch1][C][S][C][Branch2][Ring1][#C][/C][=C][\C][=Branch1][C][=O][C][=C][C][Branch1][C][F][=C][Branch1][C][F][C][=C][Ring1][Branch2][C][Ring1][N][=C][Branch1][Ring1][C][#N][C][#N][=C][C][=Ring2][Ring1][#Branch1][O][C][C][Branch1][Ring1][C][C][C][C][C][C][=C][C][=Ring2][Ring2][Branch1][Si][Ring2][Ring2][=Branch2][Branch1][O][C][C][Branch1][Ring1][C][C][C][C][C][C][C][C][Branch1][Ring1][C][C][C][C][C][C],{CCCCC(CC)COC(=O)c1sc2c(-c3cc4c(-c5ccc(CC(CC)CCCC)s5)c5sc([$])cc5c(-c5ccc(CC(CC)CCCC)s5)c4s3)sc([$])c2c1F}.CCCCC(CC)COc1cc(/C=C2\C(=O)c3cc(F)c(F)cc3C2=C(C#N)C#N)sc1-c1cc2c(s1)-c1sc(-c3sc(/C=C4\C(=O)c5cc(F)c(F)cc5C4=C(C#N)C#N)cc3OCC(CC)CCCC)cc1[Si]2(CC(CC)CCCC)CC(CC)CCCC
P3HT,BTA100,-5.057777777777777,-2.989444444444445,-4.98,-2.81,1.0,CF,_,100.0,PEDOT:PSS,Ca,1.04,1.04,1.34,1.65,47.0,CCCCCCc1cc(-c2sc(-c3sc(-c4sc(C)cc4CCCCCC)cc3CCCCCC)cc2CCCCCC)sc1C.CCCCCCCCn1nc2c(/C=C3/SC(=O)N(CC)C3=O)c(OC)c(OC)c(-c3cc4c(s3)-c3cc5c(cc3C4(c3ccc(CCCCCC)cc3)c3ccc(CCCCCC)cc3)-c3sc(-c4c(OC)c(OC)c(/C=C6/SC(=O)N(CC)C6=O)c6nn(CCCCCCCC)nc46)cc3C5(c3ccc(CCCCCC)cc3)c3ccc(CCCCCC)cc3)c2n1,[C][C][C][C][C][C][C][C][=C][Branch2][Ring2][P][C][S][C][Branch2][Ring1][S][C][S][C][Branch1][P][C][S][C][Branch1][C][C][=C][C][=Ring1][=Branch1][C][C][C][C][C][C][=C][C][=Ring1][P][C][C][C][C][C][C][=C][C][=Ring2][Ring1][N][C][C][C][C][C][C][S][C][=Ring2][Ring2][#Branch1][C].[C][C][C][C][C][C][C][C][N][N][=C][C][Branch1][P][/C][=C][/S][C][=Branch1][C][=O][N][Branch1][Ring1][C][C][C][Ring1][Branch2][=O][=C][Branch1][Ring1][O][C][C][Branch1][Ring1][O][C][=C][Branch2][O][=N][C][=C][C][=C][Branch1][Ring2][S][Ring1][Branch1][C][=C][C][=C][Branch2][Ring2][#Branch2][C][=C][Ring1][=Branch1][C][Ring1][#Branch2][Branch1][P][C][=C][C][=C][Branch1][#Branch1][C][C][C][C][C][C][C][=C][Ring1][N][C][=C][C][=C][Branch1][#Branch1][C][C][C][C][C][C][C][=C][Ring1][N][C][S][C][Branch2][Branch1][Ring1][C][=C][Branch1][Ring1][O][C][C][Branch1][Ring1][O][C][=C][Branch1][P][/C][=C][/S][C][=Branch1][C][=O][N][Branch1][Ring1][C][C][C][Ring1][Branch2][=O][C][=N][N][Branch1][=Branch2][C][C][C][C][C][C][C][C][N][=C][Ring2][Ring1][#C][Ring1][=N][=C][C][=Ring2][Ring2][Ring2][C][Ring2][=Branch1][C][Branch1][P][C][=C][C][=C][Branch1][#Branch1][C][C][C][C][C][C][C][=C][Ring1][N][C][=C][C][=C][Branch1][#Branch1][C][C][C][C][C][C][C][=C][Ring1][N][C][Ring2][=Branch2][Branch1][=N][Ring2][=Branch2][Branch2],{CCCCCCc1cc(-c2sc(-c3sc(-c4sc([$])cc4CCCCCC)cc3CCCCCC)cc2CCCCCC)sc1[$]}.CCCCCCCCn1nc2c(/C=C3/SC(=O)N(CC)C3=O)c(OC)c(OC)c(-c3cc4c(s3)-c3cc5c(cc3C4(c3ccc(CCCCCC)cc3)c3ccc(CCCCCC)cc3)-c3sc(-c4c(OC)c(OC)c(/C=C6/SC(=O)N(CC)C6=O)c6nn(CCCCCCCC)nc46)cc3C5(c3ccc(CCCCCC)cc3)c3ccc(CCCCCC)cc3)c2n1
P3HT,BTA101,-5.057777777777777,-2.989444444444445,-5.05,-2.99,1.0,CF,_,120.0,PEDOT:PSS,Ca,3.55,3.55,1.19,5.33,56.0,CCCCCCc1cc(-c2sc(-c3sc(-c4sc(C)cc4CCCCCC)cc3CCCCCC)cc2CCCCCC)sc1C.CCCCCCCCn1nc2c(/C=C3/SC(=S)N(CC)C3=O)c(OC)c(OC)c(-c3cc4c(s3)-c3cc5c(cc3C4(c3ccc(CCCCCC)cc3)c3ccc(CCCCCC)cc3)-c3sc(-c4c(OC)c(OC)c(/C=C6/SC(=S)N(CC)C6=O)c6nn(CCCCCCCC)nc46)cc3C5(c3ccc(CCCCCC)cc3)c3ccc(CCCCCC)cc3)c2n1,[C][C][C][C][C][C][C][C][=C][Branch2][Ring2][P][C][S][C][Branch2][Ring1][S][C][S][C][Branch1][P][C][S][C][Branch1][C][C][=C][C][=Ring1][=Branch1][C][C][C][C][C][C][=C][C][=Ring1][P][C][C][C][C][C][C][=C][C][=Ring2][Ring1][N][C][C][C][C][C][C][S][C][=Ring2][Ring2][#Branch1][C].[C][C][C][C][C][C][C][C][N][N][=C][C][Branch1][P][/C][=C][/S][C][=Branch1][C][=S][N][Branch1][Ring1][C][C][C][Ring1][Branch2][=O][=C][Branch1][Ring1][O][C][C][Branch1][Ring1][O][C][=C][Branch2][O][=N][C][=C][C][=C][Branch1][Ring2][S][Ring1][Branch1][C][=C][C][=C][Branch2][Ring2][#Branch2][C][=C][Ring1][=Branch1][C][Ring1][#Branch2][Branch1][P][C][=C][C][=C][Branch1][#Branch1][C][C][C][C][C][C][C][=C][Ring1][N][C][=C][C][=C][Branch1][#Branch1][C][C][C][C][C][C][C][=C][Ring1][N][C][S][C][Branch2][Branch1][Ring1][C][=C][Branch1][Ring1][O][C][C][Branch1][Ring1][O][C][=C][Branch1][P][/C][=C][/S][C][=Branch1][C][=S][N][Branch1][Ring1][C][C][C][Ring1][Branch2][=O][C][=N][N][Branch1][=Branch2][C][C][C][C][C][C][C][C][N][=C][Ring2][Ring1][#C][Ring1][=N][=C][C][=Ring2][Ring2][Ring2][C][Ring2][=Branch1][C][Branch1][P][C][=C][C][=C][Branch1][#Branch1][C][C][C][C][C][C][C][=C][Ring1][N][C][=C][C][=C][Branch1][#Branch1][C][C][C][C][C][C][C][=C][Ring1][N][C][Ring2][=Branch2][Branch1][=N][Ring2][=Branch2][Branch2],{CCCCCCc1cc(-c2sc(-c3sc(-c4sc([$])cc4CCCCCC)cc3CCCCCC)cc2CCCCCC)sc1[$]}.CCCCCCCCn1nc2c(/C=C3/SC(=S)N(CC)C3=O)c(OC)c(OC)c(-c3cc4c(s3)-c3cc5c(cc3C4(c3ccc(CCCCCC)cc3)c3ccc(CCCCCC)cc3)-c3sc(-c4c(OC)c(OC)c(/C=C6/SC(=S)N(CC)C6=O)c6nn(CCCCCCCC)nc46)cc3C5(c3ccc(CCCCCC)cc3)c3ccc(CCCCCC)cc3)c2n1