Donor,Acceptor,HOMO_D_eV,LUMO_D_eV,Eg_D_eV,Ehl_D_eV,HOMO_A_eV,LUMO_A_eV,Ehl_A_eV,Eg_A_eV,D_A_ratio_m_m,solvent,solvent_additive,annealing_temperature,hole_contact_layer,electron_contact_layer,PCE_percent,calc_PCE_percent,Voc_V,Jsc_mA_cm_pow_neg2,FF_percent,DA_SMILES,DA_SELFIES,DA_BigSMILES
PBDB-T,DTNSF,-5.297777777777778,-3.4170000000000003,1.7681818181818183,-1.8807777777777777,-5.52,-4.0,-1.5199999999999996,1.47,1:1,CB,_,25.0,MoOx,ZnO,7.15,7.28128296,0.92,14.49,54.62,Cc1ccc(-c2sc(-c3ccc(-c4cc5c(-c6ccc([Cr])s6)c6sc(C)cc6c(-c6ccc([Cr])s6)c5s4)s3)c3c2C(=O)c2c([Cr])sc([Cr])c2C3=O)s1.N#CC(C#N)=C1C(=Cc2ccc(-c3cc4c(s3)-c3c(ccc5c6c(ccc35)C([Cr])([Cr])c3cc(-c5ccc(C=C7C(=O)c8cc(F)ccc8C7=C(C#N)C#N)s5)sc3-6)C4([Cr])[Cr])s2)C(=O)c2cc(F)ccc21,[C][C][=C][C][=C][Branch2][#Branch1][O][C][S][C][Branch2][Branch1][O][C][=C][C][=C][Branch2][Ring2][S][C][=C][C][=C][Branch1][O][C][=C][C][=C][Branch1][C][Cr][S][Ring1][=Branch1][C][S][C][Branch1][C][C][=C][C][=Ring1][=Branch1][C][Branch1][O][C][=C][C][=C][Branch1][C][Cr][S][Ring1][=Branch1][=C][Ring2][Ring1][=Branch1][S][Ring2][Ring1][=Branch2][S][Ring2][Ring1][=C][=C][C][=Ring2][Ring2][Ring1][C][=Branch1][C][=O][C][=C][Branch1][C][Cr][S][C][Branch1][C][Cr][=C][Ring1][#Branch1][C][Ring1][N][=O][S][Ring2][Branch1][Ring1].[N][#C][C][Branch1][Ring1][C][#N][=C][C][=Branch2][Branch2][N][=C][C][=C][C][=C][Branch2][#Branch1][S][C][=C][C][=C][Branch1][Ring2][S][Ring1][Branch1][C][=C][Branch2][=Branch1][#Branch2][C][=C][C][=C][C][=Branch1][Branch2][=C][C][=C][Ring1][#Branch2][Ring1][=Branch1][C][Branch1][C][Cr][Branch1][C][Cr][C][C][=C][Branch2][Ring2][#Branch1][C][=C][C][=C][Branch2][Ring1][N][C][=C][C][=Branch1][C][=O][C][=C][C][Branch1][C][F][=C][C][=C][Ring1][#Branch1][C][Ring1][O][=C][Branch1][Ring1][C][#N][C][#N][S][Ring2][Ring1][=Branch1][S][C][=Ring2][Ring1][O][Ring2][Ring2][Ring1][C][Ring2][Ring2][N][Branch1][C][Cr][Cr][S][Ring2][Branch1][Branch1][C][=Branch1][C][=O][C][=C][C][Branch1][C][F][=C][C][=C][Ring1][#Branch1][Ring2][Branch1][P],{[$]c1ccc(-c2sc(-c3ccc(-c4cc5c(-c6ccc([Cr])s6)c6sc([$])cc6c(-c6ccc([Cr])s6)c5s4)s3)c3c2C(=O)c2c([Cr])sc([Cr])c2C3=O)s1}.N#CC(C#N)=C1C(=Cc2ccc(-c3cc4c(s3)-c3c(ccc5c6c(ccc35)C([Cr])([Cr])c3cc(-c5ccc(C=C7C(=O)c8cc(F)ccc8C7=C(C#N)C#N)s5)sc3-6)C4([Cr])[Cr])s2)C(=O)c2cc(F)ccc21
PDCBT-2F,IT-4F,-5.6,-3.67,1.93,-1.93,-5.670384615384615,-4.058076923076923,-1.6123076923076916,0.7441176470588237,1:1,CF,DIO,25.0,MoOx,ZnO,11.6,11.29944,0.92,17.8,69.0,Cc1cc(C(=O)O[Fe])c(-c2cc(F)c(-c3sc(-c4sc(C)cc4C(=O)O[Fe])cc3F)s2)s1.N#CC(C#N)=C1/C(=C/c2cc3sc4c(c3s2)C(c2ccc([Mo])cc2)(c2ccc([Mo])cc2)c2cc3c(cc2-4)C(c2ccc([Mo])cc2)(c2ccc([Mo])cc2)c2c-3sc3cc(/C=C4\C(=O)c5cc(F)c(F)cc5C4=C(C#N)C#N)sc23)C(=O)c2cc(F)c(F)cc21,[C][C][=C][C][Branch1][#Branch1][C][=Branch1][C][=O][O][Fe][=C][Branch2][Ring2][=Branch2][C][=C][C][Branch1][C][F][=C][Branch2][Ring1][O][C][S][C][Branch1][P][C][S][C][Branch1][C][C][=C][C][=Ring1][=Branch1][C][=Branch1][C][=O][O][Fe][=C][C][=Ring1][#C][F][S][Ring2][Ring1][=Branch1][S][Ring2][Ring1][#C].[N][#C][C][Branch1][Ring1][C][#N][=C][/C][=Branch2][#Branch2][Branch1][=C][/C][=C][C][S][C][=C][Branch1][#Branch1][C][=Ring1][Branch1][S][Ring1][Branch2][C][Branch1][N][C][=C][C][=C][Branch1][C][Mo][C][=C][Ring1][#Branch1][Branch1][N][C][=C][C][=C][Branch1][C][Mo][C][=C][Ring1][#Branch1][C][=C][C][=C][Branch1][Branch2][C][=C][Ring1][=Branch1][Ring2][Ring1][=Branch2][C][Branch1][N][C][=C][C][=C][Branch1][C][Mo][C][=C][Ring1][#Branch1][Branch1][N][C][=C][C][=C][Branch1][C][Mo][C][=C][Ring1][#Branch1][C][=C][Ring2][Ring1][Branch1][S][C][C][=C][Branch2][Ring1][#C][/C][=C][\C][=Branch1][C][=O][C][=C][C][Branch1][C][F][=C][Branch1][C][F][C][=C][Ring1][Branch2][C][Ring1][N][=C][Branch1][Ring1][C][#N][C][#N][S][C][Ring2][Ring1][#Branch2][=Ring2][Ring1][#Branch1][C][=Branch1][C][=O][C][=C][C][Branch1][C][F][=C][Branch1][C][F][C][=C][Ring1][Branch2][Ring2][#Branch1][Ring1],{[$]c1cc(C(=O)O[Fe])c(-c2cc(F)c(-c3sc(-c4sc([$])cc4C(=O)O[Fe])cc3F)s2)s1}.N#CC(C#N)=C1/C(=C/c2cc3sc4c(c3s2)C(c2ccc([Mo])cc2)(c2ccc([Mo])cc2)c2cc3c(cc2-4)C(c2ccc([Mo])cc2)(c2ccc([Mo])cc2)c2c-3sc3cc(/C=C4\C(=O)c5cc(F)c(F)cc5C4=C(C#N)C#N)sc23)C(=O)c2cc(F)c(F)cc21
PTZPF,BT-IC,-5.41,-3.42,2.0,-1.99,-5.3775,-3.8575,-1.5200000000000005,1.43,1:1,CB,CN,120.0,PEDOT:PSS,PFN-Br,5.63,5.591439,0.93,12.27,49.0,Cc1ccc(-c2c(F)c(F)c(-c3ccc(-c4cc5c(-c6cc(F)c([Cr])c(F)c6)c6sc(C)cc6c(-c6cc(F)c([Cr])c(F)c6)c5s4)s3)c3nn([Sc])nc23)s1.N#CC(C#N)=C1/C(=C/c2cc3c(s2)-c2sc4c(O[Cr])c5c6c(sc5c(O[Cr])c4c2C3(c2ccc([Mo])cc2)c2ccc([Mo])cc2)-c2sc(/C=C3\C(=O)c4ccccc4C3=C(C#N)C#N)cc2C6(c2ccc([Mo])cc2)c2ccc([Mo])cc2)C(=O)c2ccccc21,[C][C][=C][C][=C][Branch2][Branch2][Branch1][C][=C][Branch1][C][F][C][Branch1][C][F][=C][Branch2][=Branch1][O][C][=C][C][=C][Branch2][Branch1][S][C][=C][C][=C][Branch2][Ring1][C][C][=C][C][Branch1][C][F][=C][Branch1][C][Cr][C][Branch1][C][F][=C][Ring1][=Branch2][C][S][C][Branch1][C][C][=C][C][=Ring1][=Branch1][C][Branch2][Ring1][C][C][=C][C][Branch1][C][F][=C][Branch1][C][Cr][C][Branch1][C][F][=C][Ring1][=Branch2][=C][Ring2][Ring1][N][S][Ring2][Ring1][#C][S][Ring2][Ring2][Ring2][C][=N][N][Branch1][C][Sc][N][=C][Ring2][Ring2][S][Ring1][=Branch1][S][Ring2][Branch1][Branch1].[N][#C][C][Branch1][Ring1][C][#N][=C][/C][=Branch2][#Branch2][Ring1][=C][/C][=C][C][=C][Branch1][Ring2][S][Ring1][Branch1][C][S][C][=C][Branch1][Ring1][O][Cr][C][C][=C][Branch2][Ring2][N][S][C][=Ring1][Branch1][C][Branch1][Ring1][O][Cr][=C][Ring1][=N][C][=Ring1][S][C][Ring2][Ring1][Ring2][Branch1][N][C][=C][C][=C][Branch1][C][Mo][C][=C][Ring1][#Branch1][C][=C][C][=C][Branch1][C][Mo][C][=C][Ring1][#Branch1][C][S][C][Branch2][Ring1][=Branch2][/C][=C][\C][=Branch1][C][=O][C][=C][C][=C][C][=C][Ring1][=Branch1][C][Ring1][#Branch2][=C][Branch1][Ring1][C][#N][C][#N][=C][C][=Ring2][Ring1][Branch1][C][Ring2][Ring2][=C][Branch1][N][C][=C][C][=C][Branch1][C][Mo][C][=C][Ring1][#Branch1][C][=C][C][=C][Branch1][C][Mo][C][=C][Ring1][#Branch1][C][=Branch1][C][=O][C][=C][C][=C][C][=C][Ring1][=Branch1][Ring2][#Branch1][Ring1],{[$]c1ccc(-c2c(F)c(F)c(-c3ccc(-c4cc5c(-c6cc(F)c([Cr])c(F)c6)c6sc([$])cc6c(-c6cc(F)c([Cr])c(F)c6)c5s4)s3)c3nn([Sc])nc23)s1}.N#CC(C#N)=C1/C(=C/c2cc3c(s2)-c2sc4c(O[Cr])c5c6c(sc5c(O[Cr])c4c2C3(c2ccc([Mo])cc2)c2ccc([Mo])cc2)-c2sc(/C=C3\C(=O)c4ccccc4C3=C(C#N)C#N)cc2C6(c2ccc([Mo])cc2)c2ccc([Mo])cc2)C(=O)c2ccccc21
PTZPF,BT-2F,-5.41,-3.42,2.0,-1.99,-5.54,-4.05,-1.4900000000000002,1.4,1:1,CB,CN,120.0,PEDOT:PSS,PFN-Br,8.54,8.587908,0.84,19.29,53.0,Cc1ccc(-c2c(F)c(F)c(-c3ccc(-c4cc5c(-c6cc(F)c([Cr])c(F)c6)c6sc(C)cc6c(-c6cc(F)c([Cr])c(F)c6)c5s4)s3)c3nn([Sc])nc23)s1.N#CC(C#N)=C1/C(=C/c2cc3c(s2)-c2sc4c(O[Cr])c5c6c(sc5c(O[Cr])c4c2C3(c2ccc([Mo])cc2)c2ccc([Mo])cc2)-c2sc(/C=C3\C(=O)c4cc(F)c(F)cc4C3=C(C#N)C#N)cc2C6(c2ccc([Mo])cc2)c2ccc([Mo])cc2)C(=O)c2cc(F)c(F)cc21,[C][C][=C][C][=C][Branch2][Branch2][Branch1][C][=C][Branch1][C][F][C][Branch1][C][F][=C][Branch2][=Branch1][O][C][=C][C][=C][Branch2][Branch1][S][C][=C][C][=C][Branch2][Ring1][C][C][=C][C][Branch1][C][F][=C][Branch1][C][Cr][C][Branch1][C][F][=C][Ring1][=Branch2][C][S][C][Branch1][C][C][=C][C][=Ring1][=Branch1][C][Branch2][Ring1][C][C][=C][C][Branch1][C][F][=C][Branch1][C][Cr][C][Branch1][C][F][=C][Ring1][=Branch2][=C][Ring2][Ring1][N][S][Ring2][Ring1][#C][S][Ring2][Ring2][Ring2][C][=N][N][Branch1][C][Sc][N][=C][Ring2][Ring2][S][Ring1][=Branch1][S][Ring2][Branch1][Branch1].[N][#C][C][Branch1][Ring1][C][#N][=C][/C][=Branch2][#Branch2][=Branch2][=C][/C][=C][C][=C][Branch1][Ring2][S][Ring1][Branch1][C][S][C][=C][Branch1][Ring1][O][Cr][C][C][=C][Branch2][Ring2][N][S][C][=Ring1][Branch1][C][Branch1][Ring1][O][Cr][=C][Ring1][=N][C][=Ring1][S][C][Ring2][Ring1][Ring2][Branch1][N][C][=C][C][=C][Branch1][C][Mo][C][=C][Ring1][#Branch1][C][=C][C][=C][Branch1][C][Mo][C][=C][Ring1][#Branch1][C][S][C][Branch2][Ring1][#C][/C][=C][\C][=Branch1][C][=O][C][=C][C][Branch1][C][F][=C][Branch1][C][F][C][=C][Ring1][Branch2][C][Ring1][N][=C][Branch1][Ring1][C][#N][C][#N][=C][C][=Ring2][Ring1][#Branch1][C][Ring2][Ring2][S][Branch1][N][C][=C][C][=C][Branch1][C][Mo][C][=C][Ring1][#Branch1][C][=C][C][=C][Branch1][C][Mo][C][=C][Ring1][#Branch1][C][=Branch1][C][=O][C][=C][C][Branch1][C][F][=C][Branch1][C][F][C][=C][Ring1][Branch2][Ring2][#Branch1][#Branch1],{[$]c1ccc(-c2c(F)c(F)c(-c3ccc(-c4cc5c(-c6cc(F)c([Cr])c(F)c6)c6sc([$])cc6c(-c6cc(F)c([Cr])c(F)c6)c5s4)s3)c3nn([Sc])nc23)s1}.N#CC(C#N)=C1/C(=C/c2cc3c(s2)-c2sc4c(O[Cr])c5c6c(sc5c(O[Cr])c4c2C3(c2ccc([Mo])cc2)c2ccc([Mo])cc2)-c2sc(/C=C3\C(=O)c4cc(F)c(F)cc4C3=C(C#N)C#N)cc2C6(c2ccc([Mo])cc2)c2ccc([Mo])cc2)C(=O)c2cc(F)c(F)cc21
P3HT,BT3,-5.057777777777777,-2.989444444444445,1.9,-2.068333333333332,-5.575,-3.77,-1.805,1.565,1:0.3,CF,_,120.0,PEDOT:PSS,Ca,2.55,2.551752,0.72,5.81,61.0,CCCCCCc1cc(-c2sc(-c3sc(-c4sc(C)cc4CCCCCC)cc3CCCCCC)cc2CCCCCC)sc1C.CCCCCCc1ccc(C2(c3ccc(CCCCCC)cc3)c3cc4c(cc3-c3sc(-c5ccc(/C=c6\sc(=C(C#N)C#N)n(CC)c6=O)c6nsnc56)cc32)C(c2ccc(CCCCCC)cc2)(c2ccc(CCCCCC)cc2)c2cc(-c3ccc(/C=c5\sc(=C(C#N)C#N)n(CC)c5=O)c5nsnc35)sc2-4)cc1,[C][C][C][C][C][C][C][C][=C][Branch2][Ring2][P][C][S][C][Branch2][Ring1][S][C][S][C][Branch1][P][C][S][C][Branch1][C][C][=C][C][=Ring1][=Branch1][C][C][C][C][C][C][=C][C][=Ring1][P][C][C][C][C][C][C][=C][C][=Ring2][Ring1][N][C][C][C][C][C][C][S][C][=Ring2][Ring2][#Branch1][C].[C][C][C][C][C][C][C][=C][C][=C][Branch2][N][=C][C][Branch1][P][C][=C][C][=C][Branch1][#Branch1][C][C][C][C][C][C][C][=C][Ring1][N][C][=C][C][=C][Branch2][Branch1][#Branch2][C][=C][Ring1][=Branch1][C][S][C][Branch2][Ring2][Branch2][C][=C][C][=C][Branch2][Ring1][#Branch1][/C][=C][\S][C][=Branch1][Branch2][=C][Branch1][Ring1][C][#N][C][#N][N][Branch1][Ring1][C][C][C][Ring1][N][=O][C][=N][S][N][=C][Ring2][Ring1][#Branch1][Ring1][Branch1][=C][C][=Ring2][Ring1][N][Ring2][Ring2][#C][C][Branch1][P][C][=C][C][=C][Branch1][#Branch1][C][C][C][C][C][C][C][=C][Ring1][N][Branch1][P][C][=C][C][=C][Branch1][#Branch1][C][C][C][C][C][C][C][=C][Ring1][N][C][C][=C][Branch2][Ring2][Branch2][C][=C][C][=C][Branch2][Ring1][#Branch1][/C][=C][\S][C][=Branch1][Branch2][=C][Branch1][Ring1][C][#N][C][#N][N][Branch1][Ring1][C][C][C][Ring1][N][=O][C][=N][S][N][=C][Ring2][Ring1][#Branch1][Ring1][Branch1][S][C][=Ring2][Ring1][N][Ring2][#Branch1][Branch1][C][=C][Ring2][Branch2][#Branch2],{CCCCCCc1cc(-c2sc(-c3sc(-c4sc([$])cc4CCCCCC)cc3CCCCCC)cc2CCCCCC)sc1[$]}.CCCCCCc1ccc(C2(c3ccc(CCCCCC)cc3)c3cc4c(cc3-c3sc(-c5ccc(/C=c6\sc(=C(C#N)C#N)n(CC)c6=O)c6nsnc56)cc32)C(c2ccc(CCCCCC)cc2)(c2ccc(CCCCCC)cc2)c2cc(-c3ccc(/C=c5\sc(=C(C#N)C#N)n(CC)c5=O)c5nsnc35)sc2-4)cc1
P3HT,BTA3,-5.057777777777777,-2.989444444444445,1.9,-2.068333333333332,-5.415,-3.445,-1.97,1.76,1:0.5,CF,_,130.0,PEDOT:PSS,Ca,5.64,5.6394,0.9,9.64,65.0,CCCCCCc1cc(-c2sc(-c3sc(-c4sc(C)cc4CCCCCC)cc3CCCCCC)cc2CCCCCC)sc1C.CCn1c(=C(C#N)C#N)s/c(=C\c2ccc(-c3cc4c(s3)-c3cc5c(cc3C4(c3ccc([Mo])cc3)c3ccc([Mo])cc3)-c3sc(-c4ccc(/C=c6\sc(=C(C#N)C#N)n(CC)c6=O)c6nn([Ti])nc46)cc3C5(c3ccc([Mo])cc3)c3ccc([Mo])cc3)c3nn([Ti])nc23)c1=O,[C][C][C][C][C][C][C][C][=C][Branch2][Ring2][P][C][S][C][Branch2][Ring1][S][C][S][C][Branch1][P][C][S][C][Branch1][C][C][=C][C][=Ring1][=Branch1][C][C][C][C][C][C][=C][C][=Ring1][P][C][C][C][C][C][C][=C][C][=Ring2][Ring1][N][C][C][C][C][C][C][S][C][=Ring2][Ring2][#Branch1][C].[C][C][N][C][=Branch1][Branch2][=C][Branch1][Ring1][C][#N][C][#N][S][/C][=Branch2][O][=Branch1][=C][\C][=C][C][=C][Branch2][=Branch2][P][C][=C][C][=C][Branch1][Ring2][S][Ring1][Branch1][C][=C][C][=C][Branch2][Ring1][S][C][=C][Ring1][=Branch1][C][Ring1][#Branch2][Branch1][N][C][=C][C][=C][Branch1][C][Mo][C][=C][Ring1][#Branch1][C][=C][C][=C][Branch1][C][Mo][C][=C][Ring1][#Branch1][C][S][C][Branch2][Ring2][O][C][=C][C][=C][Branch2][Ring1][#Branch1][/C][=C][\S][C][=Branch1][Branch2][=C][Branch1][Ring1][C][#N][C][#N][N][Branch1][Ring1][C][C][C][Ring1][N][=O][C][=N][N][Branch1][C][Ti][N][=C][Ring2][Ring1][Branch2][Ring1][=Branch1][=C][C][=Ring2][Ring1][=N][C][Ring2][Ring2][P][Branch1][N][C][=C][C][=C][Branch1][C][Mo][C][=C][Ring1][#Branch1][C][=C][C][=C][Branch1][C][Mo][C][=C][Ring1][#Branch1][C][=N][N][Branch1][C][Ti][N][=C][Ring2][=Branch1][S][Ring1][=Branch1][C][Ring2][#Branch1][O][=O],{CCCCCCc1cc(-c2sc(-c3sc(-c4sc([$])cc4CCCCCC)cc3CCCCCC)cc2CCCCCC)sc1[$]}.CCn1c(=C(C#N)C#N)s/c(=C\c2ccc(-c3cc4c(s3)-c3cc5c(cc3C4(c3ccc([Mo])cc3)c3ccc([Mo])cc3)-c3sc(-c4ccc(/C=c6\sc(=C(C#N)C#N)n(CC)c6=O)c6nn([Ti])nc46)cc3C5(c3ccc([Mo])cc3)c3ccc([Mo])cc3)c3nn([Ti])nc23)c1=O
P3HT,Qx1b,-5.057777777777777,-2.989444444444445,1.9,-2.068333333333332,-5.35,-3.66,-1.6899999999999995,1.68,0.8:1,o-DCB,CN,100.0,PEDOT:PSS,Ca,4.81,4.81137,0.95,7.34,69.0,CCCCCCc1cc(-c2sc(-c3sc(-c4sc(C)cc4CCCCCC)cc3CCCCCC)cc2CCCCCC)sc1C.O=Cc1ccc(-c2cc3c(s2)-c2cc4c(cc2C3([Mo])[Mo])-c2sc(-c3ccc(C=O)c5nc(-c6ccccc6)c(-c6ccccc6)nc35)cc2C4([Mo])[Mo])c2nc(-c3ccccc3)c(-c3ccccc3)nc12,[C][C][C][C][C][C][C][C][=C][Branch2][Ring2][P][C][S][C][Branch2][Ring1][S][C][S][C][Branch1][P][C][S][C][Branch1][C][C][=C][C][=Ring1][=Branch1][C][C][C][C][C][C][=C][C][=Ring1][P][C][C][C][C][C][C][=C][C][=Ring2][Ring1][N][C][C][C][C][C][C][S][C][=Ring2][Ring2][#Branch1][C].[O][=C][C][=C][C][=C][Branch2][#Branch1][=Branch1][C][=C][C][=C][Branch1][Ring2][S][Ring1][Branch1][C][=C][C][=C][Branch1][N][C][=C][Ring1][=Branch1][C][Ring1][#Branch2][Branch1][C][Mo][Mo][C][S][C][Branch2][Ring2][=Branch2][C][=C][C][=C][Branch1][Ring1][C][=O][C][=N][C][Branch1][=Branch2][C][=C][C][=C][C][=C][Ring1][=Branch1][=C][Branch1][=Branch2][C][=C][C][=C][C][=C][Ring1][=Branch1][N][=C][Ring2][Ring1][Branch2][Ring2][Ring1][C][=C][C][=Ring2][Ring1][=N][C][Ring2][Ring2][Branch1][Branch1][C][Mo][Mo][C][=N][C][Branch1][=Branch2][C][=C][C][=C][C][=C][Ring1][=Branch1][=C][Branch1][=Branch2][C][=C][C][=C][C][=C][Ring1][=Branch1][N][=C][Ring2][=Branch1][Ring2][Ring2][Ring1][C],{CCCCCCc1cc(-c2sc(-c3sc(-c4sc([$])cc4CCCCCC)cc3CCCCCC)cc2CCCCCC)sc1[$]}.O=Cc1ccc(-c2cc3c(s2)-c2cc4c(cc2C3([Mo])[Mo])-c2sc(-c3ccc(C=O)c5nc(-c6ccccc6)c(-c6ccccc6)nc35)cc2C4([Mo])[Mo])c2nc(-c3ccccc3)c(-c3ccccc3)nc12
P3HT,BTA23,-5.057777777777777,-2.989444444444445,1.9,-2.068333333333332,-5.7,-3.57,-2.1300000000000003,2.15,1:1,CF,_,120.0,PEDOT:PSS,Ca,1.86,1.86264,0.9,3.98,52.0,CCCCCCc1cc(-c2sc(-c3sc(-c4sc(C)cc4CCCCCC)cc3CCCCCC)cc2CCCCCC)sc1C.CCn1c(=C(C#N)C#N)s/c(=C\c2ccc(-c3ccc4c(c3)C3(c5ccccc5-c5ccccc53)c3cc(-c5ccc(/C=c6\sc(=C(C#N)C#N)n(CC)c6=O)c6nn([Mo])nc56)ccc3-4)c3nn([Mo])nc23)c1=O,[C][C][C][C][C][C][C][C][=C][Branch2][Ring2][P][C][S][C][Branch2][Ring1][S][C][S][C][Branch1][P][C][S][C][Branch1][C][C][=C][C][=Ring1][=Branch1][C][C][C][C][C][C][=C][C][=Ring1][P][C][C][C][C][C][C][=C][C][=Ring2][Ring1][N][C][C][C][C][C][C][S][C][=Ring2][Ring2][#Branch1][C].[C][C][N][C][=Branch1][Branch2][=C][Branch1][Ring1][C][#N][C][#N][S][/C][=Branch2][Branch2][#C][=C][\C][=C][C][=C][Branch2][#Branch1][#Branch2][C][=C][C][=C][C][=Branch1][Ring2][=C][Ring1][=Branch1][C][Branch2][Ring1][Ring1][C][=C][C][=C][C][=C][Ring1][=Branch1][C][=C][C][=C][C][=C][Ring1][=Branch1][Ring1][=N][C][=C][C][Branch2][Ring2][O][C][=C][C][=C][Branch2][Ring1][#Branch1][/C][=C][\S][C][=Branch1][Branch2][=C][Branch1][Ring1][C][#N][C][#N][N][Branch1][Ring1][C][C][C][Ring1][N][=O][C][=N][N][Branch1][C][Mo][N][=C][Ring2][Ring1][Branch2][Ring1][=Branch1][=C][C][=C][Ring2][Ring1][=C][Ring2][Ring2][=C][C][=N][N][Branch1][C][Mo][N][=C][Ring2][Branch1][O][Ring1][=Branch1][C][Ring2][=Branch1][=Branch1][=O],{CCCCCCc1cc(-c2sc(-c3sc(-c4sc([$])cc4CCCCCC)cc3CCCCCC)cc2CCCCCC)sc1[$]}.CCn1c(=C(C#N)C#N)s/c(=C\c2ccc(-c3ccc4c(c3)C3(c5ccccc5-c5ccccc53)c3cc(-c5ccc(/C=c6\sc(=C(C#N)C#N)n(CC)c6=O)c6nn([Mo])nc56)ccc3-4)c3nn([Mo])nc23)c1=O
P3HT,BTA27,-5.057777777777777,-2.989444444444445,1.9,-2.068333333333332,-6.08,-3.81,-2.27,2.21,1:1,CF,_,100.0,PEDOT:PSS,Ca,0.62,0.62424,0.6,2.89,36.0,CCCCCCc1cc(-c2sc(-c3sc(-c4sc(C)cc4CCCCCC)cc3CCCCCC)cc2CCCCCC)sc1C.N#CC(C#N)=Cc1ccc(-c2ccc3c(c2)C2(c4ccccc4-c4ccccc42)c2cc(-c4ccc(C=C(C#N)C#N)c5nn([Mo])nc45)ccc2-3)c2nn([Mo])nc12,[C][C][C][C][C][C][C][C][=C][Branch2][Ring2][P][C][S][C][Branch2][Ring1][S][C][S][C][Branch1][P][C][S][C][Branch1][C][C][=C][C][=Ring1][=Branch1][C][C][C][C][C][C][=C][C][=Ring1][P][C][C][C][C][C][C][=C][C][=Ring2][Ring1][N][C][C][C][C][C][C][S][C][=Ring2][Ring2][#Branch1][C].[N][#C][C][Branch1][Ring1][C][#N][=C][C][=C][C][=C][Branch2][=Branch1][#Branch2][C][=C][C][=C][C][=Branch1][Ring2][=C][Ring1][=Branch1][C][Branch2][Ring1][Ring1][C][=C][C][=C][C][=C][Ring1][=Branch1][C][=C][C][=C][C][=C][Ring1][=Branch1][Ring1][=N][C][=C][C][Branch2][Ring1][O][C][=C][C][=C][Branch1][=Branch2][C][=C][Branch1][Ring1][C][#N][C][#N][C][=N][N][Branch1][C][Mo][N][=C][Ring1][S][Ring1][=Branch1][=C][C][=C][Ring2][Ring1][=Branch1][Ring2][Ring2][=Branch1][C][=N][N][Branch1][C][Mo][N][=C][Ring2][Branch1][Ring1][Ring1][=Branch1],{CCCCCCc1cc(-c2sc(-c3sc(-c4sc([$])cc4CCCCCC)cc3CCCCCC)cc2CCCCCC)sc1[$]}.N#CC(C#N)=Cc1ccc(-c2ccc3c(c2)C2(c4ccccc4-c4ccccc42)c2cc(-c4ccc(C=C(C#N)C#N)c5nn([Mo])nc45)ccc2-3)c2nn([Mo])nc12
PBDTTz-BP,ITIC,-5.025,-2.97,1.945,-2.055,-5.574285714285715,-3.9143137254901954,-1.659971988795519,1.5857894736842106,1:1,CB,_,25.0,PEDOT:PSS,Ca,8.03,8.02872,0.81,17.7,56.0,Cc1ccc(-c2c(F)c(F)c(-c3ccc(-c4cc5c(-c6ccc(-c7ccc(O[Sc])cc7)cc6)c6sc(C)cc6c(-c6ccc(-c7ccc(O[Sc])cc7)cc6)c5s4)s3)c3nn([Co])nc23)s1.N#CC(C#N)=C1/C(=C/c2cc3sc4c(c3s2)C(c2ccc([Mo])cc2)(c2ccc([Mo])cc2)c2cc3c(cc2-4)C(c2ccc([Mo])cc2)(c2ccc([Mo])cc2)c2c-3sc3cc(/C=C4\C(=O)c5ccccc5C4=C(C#N)C#N)sc23)C(=O)c2ccccc21,[C][C][=C][C][=C][Branch2][Branch2][#C][C][=C][Branch1][C][F][C][Branch1][C][F][=C][Branch2][#Branch1][Branch1][C][=C][C][=C][Branch2][=Branch1][#Branch2][C][=C][C][=C][Branch2][Ring1][#Branch1][C][=C][C][=C][Branch1][=N][C][=C][C][=C][Branch1][Ring1][O][Sc][C][=C][Ring1][Branch2][C][=C][Ring1][=C][C][S][C][Branch1][C][C][=C][C][=Ring1][=Branch1][C][Branch2][Ring1][#Branch1][C][=C][C][=C][Branch1][=N][C][=C][C][=C][Branch1][Ring1][O][Sc][C][=C][Ring1][Branch2][C][=C][Ring1][=C][=C][Ring2][Ring2][=Branch1][S][Ring2][Ring2][=Branch2][S][Ring2][Ring2][=C][C][=N][N][Branch1][C][Co][N][=C][Ring2][Branch1][#Branch2][Ring1][=Branch1][S][Ring2][Branch1][#C].[N][#C][C][Branch1][Ring1][C][#N][=C][/C][=Branch2][=Branch2][#C][=C][/C][=C][C][S][C][=C][Branch1][#Branch1][C][=Ring1][Branch1][S][Ring1][Branch2][C][Branch1][N][C][=C][C][=C][Branch1][C][Mo][C][=C][Ring1][#Branch1][Branch1][N][C][=C][C][=C][Branch1][C][Mo][C][=C][Ring1][#Branch1][C][=C][C][=C][Branch1][Branch2][C][=C][Ring1][=Branch1][Ring2][Ring1][=Branch2][C][Branch1][N][C][=C][C][=C][Branch1][C][Mo][C][=C][Ring1][#Branch1][Branch1][N][C][=C][C][=C][Branch1][C][Mo][C][=C][Ring1][#Branch1][C][=C][Ring2][Ring1][Branch1][S][C][C][=C][Branch2][Ring1][=Branch2][/C][=C][\C][=Branch1][C][=O][C][=C][C][=C][C][=C][Ring1][=Branch1][C][Ring1][#Branch2][=C][Branch1][Ring1][C][#N][C][#N][S][C][Ring2][Ring1][Branch2][=Ring2][Ring1][Branch1][C][=Branch1][C][=O][C][=C][C][=C][C][=C][Ring1][=Branch1][Ring2][=Branch1][#C],{[$]c1ccc(-c2c(F)c(F)c(-c3ccc(-c4cc5c(-c6ccc(-c7ccc(O[Sc])cc7)cc6)c6sc([$])cc6c(-c6ccc(-c7ccc(O[Sc])cc7)cc6)c5s4)s3)c3nn([Co])nc23)s1}.N#CC(C#N)=C1/C(=C/c2cc3sc4c(c3s2)C(c2ccc([Mo])cc2)(c2ccc([Mo])cc2)c2cc3c(cc2-4)C(c2ccc([Mo])cc2)(c2ccc([Mo])cc2)c2c-3sc3cc(/C=C4\C(=O)c5ccccc5C4=C(C#N)C#N)sc23)C(=O)c2ccccc21