Donor,Acceptor,HOMO_D_eV,LUMO_D_eV,HOMO_A_eV,LUMO_A_eV,D_A_ratio_m_m,solvent,solvent_additive,annealing_temperature,hole_contact_layer,electron_contact_layer,PCE_percent,calc_PCE_percent,Voc_V,Jsc_mA_cm_pow_neg2,FF_percent,DA_SMILES,DA_SELFIES,DA_BigSMILES
PBDTTz-SBP,ITIC,-5.46,-3.5,-5.574146341463415,-3.915,1.0,CB,_,25.0,PEDOT:PSS,PFN-Br,12.09,12.09,0.914,18.52,71.43,CCCCCCCCC(CCCCCC)CSc1ccc(-c2ccc(-c3c4cc(-c5ccc(-c6c(F)c(F)c(-c7ccc(C)s7)c7nn(CC(CCCCCC)CCCCCCCC)nc67)s5)sc4c(-c4ccc(-c5ccc(SCC(CCCCCC)CCCCCCCC)cc5)cc4)c4cc(C)sc34)cc2)cc1.CCCCCCc1ccc(C2(c3ccc(CCCCCC)cc3)c3cc4c(cc3-c3sc5cc(/C=C6\C(=O)c7ccccc7C6=C(C#N)C#N)sc5c32)C(c2ccc(CCCCCC)cc2)(c2ccc(CCCCCC)cc2)c2c-4sc3cc(/C=C4\C(=O)c5ccccc5C4=C(C#N)C#N)sc23)cc1,[C][C][C][C][C][C][C][C][C][Branch1][#Branch1][C][C][C][C][C][C][C][S][C][=C][C][=C][Branch2][O][=Branch1][C][=C][C][=C][Branch2][#Branch2][#Branch2][C][=C][C][=C][Branch2][=Branch1][C][C][=C][C][=C][Branch2][Branch1][#Branch1][C][=C][Branch1][C][F][C][Branch1][C][F][=C][Branch1][O][C][=C][C][=C][Branch1][C][C][S][Ring1][=Branch1][C][=N][N][Branch2][Ring1][Ring1][C][C][Branch1][#Branch1][C][C][C][C][C][C][C][C][C][C][C][C][C][C][N][=C][Ring2][Ring1][P][Ring2][Ring1][Branch1][S][Ring2][Ring2][=Branch1][S][C][Ring2][Ring2][O][=C][Branch2][Ring2][N][C][=C][C][=C][Branch2][Ring1][S][C][=C][C][=C][Branch2][Ring1][Ring2][S][C][C][Branch1][#Branch1][C][C][C][C][C][C][C][C][C][C][C][C][C][C][C][=C][Ring2][Ring1][#Branch1][C][=C][Ring2][Ring1][=N][C][C][=C][Branch1][C][C][S][C][Ring2][=Branch1][S][=Ring1][=Branch1][C][=C][Ring2][#Branch1][=Branch1][C][=C][Ring2][#Branch1][N].[C][C][C][C][C][C][C][=C][C][=C][Branch2][O][N][C][Branch1][P][C][=C][C][=C][Branch1][#Branch1][C][C][C][C][C][C][C][=C][Ring1][N][C][=C][C][=C][Branch2][Ring2][P][C][=C][Ring1][=Branch1][C][S][C][C][=C][Branch2][Ring1][=Branch2][/C][=C][\C][=Branch1][C][=O][C][=C][C][=C][C][=C][Ring1][=Branch1][C][Ring1][#Branch2][=C][Branch1][Ring1][C][#N][C][#N][S][C][=Ring2][Ring1][Branch1][C][=Ring2][Ring1][Branch2][Ring2][Ring2][O][C][Branch1][P][C][=C][C][=C][Branch1][#Branch1][C][C][C][C][C][C][C][=C][Ring1][N][Branch1][P][C][=C][C][=C][Branch1][#Branch1][C][C][C][C][C][C][C][=C][Ring1][N][C][=C][Ring2][Branch1][#Branch1][S][C][C][=C][Branch2][Ring1][=Branch2][/C][=C][\C][=Branch1][C][=O][C][=C][C][=C][C][=C][Ring1][=Branch1][C][Ring1][#Branch2][=C][Branch1][Ring1][C][#N][C][#N][S][C][Ring2][Ring1][Branch2][=Ring2][Ring1][Branch1][C][=C][Ring2][Branch2][C],{CCCCCCCCC(CCCCCC)CSc1ccc(-c2ccc(-c3c4cc(-c5ccc(-c6c(F)c(F)c(-c7ccc([$])s7)c7nn(CC(CCCCCC)CCCCCCCC)nc67)s5)sc4c(-c4ccc(-c5ccc(SCC(CCCCCC)CCCCCCCC)cc5)cc4)c4cc([$])sc34)cc2)cc1}.CCCCCCc1ccc(C2(c3ccc(CCCCCC)cc3)c3cc4c(cc3-c3sc5cc(/C=C6\C(=O)c7ccccc7C6=C(C#N)C#N)sc5c32)C(c2ccc(CCCCCC)cc2)(c2ccc(CCCCCC)cc2)c2c-4sc3cc(/C=C4\C(=O)c5ccccc5C4=C(C#N)C#N)sc23)cc1
PBDTTz-BP,ITIC,-5.025,-2.97,-5.574146341463415,-3.915,1.0,CB,_,25.0,PEDOT:PSS,PFN-Br,9.2,9.2,0.832,17.96,61.56,CCCCCCCCC(CCCCCC)COc1ccc(-c2ccc(-c3c4cc(-c5ccc(-c6c(F)c(F)c(-c7ccc(C)s7)c7nn(SCC(CCCC)CCCCCC)nc67)s5)sc4c(-c4ccc(-c5ccc(OCC(CCCCCC)CCCCCCCC)cc5)cc4)c4cc(C)sc34)cc2)cc1.CCCCCCc1ccc(C2(c3ccc(CCCCCC)cc3)c3cc4c(cc3-c3sc5cc(/C=C6\C(=O)c7ccccc7C6=C(C#N)C#N)sc5c32)C(c2ccc(CCCCCC)cc2)(c2ccc(CCCCCC)cc2)c2c-4sc3cc(/C=C4\C(=O)c5ccccc5C4=C(C#N)C#N)sc23)cc1,[C][C][C][C][C][C][C][C][C][Branch1][#Branch1][C][C][C][C][C][C][C][O][C][=C][C][=C][Branch2][O][C][C][=C][C][=C][Branch2][#Branch2][=Branch1][C][=C][C][=C][Branch2][Branch1][=C][C][=C][C][=C][Branch2][Branch1][Ring1][C][=C][Branch1][C][F][C][Branch1][C][F][=C][Branch1][O][C][=C][C][=C][Branch1][C][C][S][Ring1][=Branch1][C][=N][N][Branch1][S][S][C][C][Branch1][Branch1][C][C][C][C][C][C][C][C][C][C][N][=C][Ring2][Ring1][=C][Ring2][Ring1][C][S][Ring2][Ring2][Ring1][S][C][Ring2][Ring2][Branch2][=C][Branch2][Ring2][N][C][=C][C][=C][Branch2][Ring1][S][C][=C][C][=C][Branch2][Ring1][Ring2][O][C][C][Branch1][#Branch1][C][C][C][C][C][C][C][C][C][C][C][C][C][C][C][=C][Ring2][Ring1][#Branch1][C][=C][Ring2][Ring1][=N][C][C][=C][Branch1][C][C][S][C][Ring2][=Branch1][=N][=Ring1][=Branch1][C][=C][Ring2][#Branch1][Ring1][C][=C][Ring2][#Branch1][=Branch2].[C][C][C][C][C][C][C][=C][C][=C][Branch2][O][N][C][Branch1][P][C][=C][C][=C][Branch1][#Branch1][C][C][C][C][C][C][C][=C][Ring1][N][C][=C][C][=C][Branch2][Ring2][P][C][=C][Ring1][=Branch1][C][S][C][C][=C][Branch2][Ring1][=Branch2][/C][=C][\C][=Branch1][C][=O][C][=C][C][=C][C][=C][Ring1][=Branch1][C][Ring1][#Branch2][=C][Branch1][Ring1][C][#N][C][#N][S][C][=Ring2][Ring1][Branch1][C][=Ring2][Ring1][Branch2][Ring2][Ring2][O][C][Branch1][P][C][=C][C][=C][Branch1][#Branch1][C][C][C][C][C][C][C][=C][Ring1][N][Branch1][P][C][=C][C][=C][Branch1][#Branch1][C][C][C][C][C][C][C][=C][Ring1][N][C][=C][Ring2][Branch1][#Branch1][S][C][C][=C][Branch2][Ring1][=Branch2][/C][=C][\C][=Branch1][C][=O][C][=C][C][=C][C][=C][Ring1][=Branch1][C][Ring1][#Branch2][=C][Branch1][Ring1][C][#N][C][#N][S][C][Ring2][Ring1][Branch2][=Ring2][Ring1][Branch1][C][=C][Ring2][Branch2][C],{CCCCCCCCC(CCCCCC)COc1ccc(-c2ccc(-c3c4cc(-c5ccc(-c6c(F)c(F)c(-c7ccc([$])s7)c7nn(SCC(CCCC)CCCCCC)nc67)s5)sc4c(-c4ccc(-c5ccc(OCC(CCCCCC)CCCCCCCC)cc5)cc4)c4cc([$])sc34)cc2)cc1}.CCCCCCc1ccc(C2(c3ccc(CCCCCC)cc3)c3cc4c(cc3-c3sc5cc(/C=C6\C(=O)c7ccccc7C6=C(C#N)C#N)sc5c32)C(c2ccc(CCCCCC)cc2)(c2ccc(CCCCCC)cc2)c2c-4sc3cc(/C=C4\C(=O)c5ccccc5C4=C(C#N)C#N)sc23)cc1
PJ1,m-ITIC,-5.38,-3.38,-5.526666666666667,-3.8515384615384622,0.667,CF,DIO,130.0,PEDOT:PSS,PDINO,6.41,6.41,1.031,11.1,56.0,CCCCCCCCCCCCSc1cc(C)sc1-c1sc(-c2sc(-c3cc4c(-c5ccc([Si](CCC)(CCC)CCC)s5)c5sc(C)cc5c(-c5ccc([Si](CCC)(CCC)CCC)s5)c4s3)cc2SCCCCCCCCCCCC)c2c1C(=O)N(CC(CCCCCC)CCCCCCCC)C2=O.CCCCCCc1cccc(C2(c3cccc(CCCCCC)c3)c3cc4c(cc3-c3sc5cc(/C=C6\C(=O)c7ccccc7C6=C(C#N)C#N)sc5c32)C(c2cccc(CCCCCC)c2)(c2cccc(CCCCCC)c2)c2c-4sc3cc(/C=C4\C(=O)c5ccccc5C4=C(C#N)C#N)sc23)c1,[C][C][C][C][C][C][C][C][C][C][C][C][S][C][C][=C][Branch1][C][C][S][C][=Ring1][=Branch1][C][S][C][Branch2][Branch2][Ring2][C][S][C][Branch2][=Branch1][N][C][=C][C][=C][Branch2][Ring1][Branch2][C][=C][C][=C][Branch1][#C][Si][Branch1][Ring2][C][C][C][Branch1][Ring2][C][C][C][C][C][C][S][Ring1][#C][C][S][C][Branch1][C][C][=C][C][=Ring1][=Branch1][C][Branch2][Ring1][Branch2][C][=C][C][=C][Branch1][#C][Si][Branch1][Ring2][C][C][C][Branch1][Ring2][C][C][C][C][C][C][S][Ring1][#C][=C][Ring2][Ring2][Branch2][S][Ring2][Ring2][O][=C][C][=Ring2][Ring2][S][S][C][C][C][C][C][C][C][C][C][C][C][C][=C][C][=Ring2][=Branch1][C][C][=Branch1][C][=O][N][Branch2][Ring1][Ring1][C][C][Branch1][#Branch1][C][C][C][C][C][C][C][C][C][C][C][C][C][C][C][Ring2][Ring1][=Branch1][=O].[C][C][C][C][C][C][C][=C][C][=C][C][Branch2][O][N][C][Branch1][P][C][=C][C][=C][C][Branch1][#Branch1][C][C][C][C][C][C][=C][Ring1][N][C][=C][C][=C][Branch2][Ring2][P][C][=C][Ring1][=Branch1][C][S][C][C][=C][Branch2][Ring1][=Branch2][/C][=C][\C][=Branch1][C][=O][C][=C][C][=C][C][=C][Ring1][=Branch1][C][Ring1][#Branch2][=C][Branch1][Ring1][C][#N][C][#N][S][C][=Ring2][Ring1][Branch1][C][=Ring2][Ring1][Branch2][Ring2][Ring2][O][C][Branch1][P][C][=C][C][=C][C][Branch1][#Branch1][C][C][C][C][C][C][=C][Ring1][N][Branch1][P][C][=C][C][=C][C][Branch1][#Branch1][C][C][C][C][C][C][=C][Ring1][N][C][=C][Ring2][Branch1][#Branch1][S][C][C][=C][Branch2][Ring1][=Branch2][/C][=C][\C][=Branch1][C][=O][C][=C][C][=C][C][=C][Ring1][=Branch1][C][Ring1][#Branch2][=C][Branch1][Ring1][C][#N][C][#N][S][C][Ring2][Ring1][Branch2][=Ring2][Ring1][Branch1][=C][Ring2][Branch2][C],{CCCCCCCCCCCCSc1cc([$])sc1-c1sc(-c2sc(-c3cc4c(-c5ccc([Si](CCC)(CCC)CCC)s5)c5sc([$])cc5c(-c5ccc([Si](CCC)(CCC)CCC)s5)c4s3)cc2SCCCCCCCCCCCC)c2c1C(=O)N(CC(CCCCCC)CCCCCCCC)C2=O}.CCCCCCc1cccc(C2(c3cccc(CCCCCC)c3)c3cc4c(cc3-c3sc5cc(/C=C6\C(=O)c7ccccc7C6=C(C#N)C#N)sc5c32)C(c2cccc(CCCCCC)c2)(c2cccc(CCCCCC)c2)c2c-4sc3cc(/C=C4\C(=O)c5ccccc5C4=C(C#N)C#N)sc23)c1
PJ1,IDIC,-5.38,-3.38,-5.706,-4.002666666666667,0.667,CF,DIO,130.0,PEDOT:PSS,PDINO,6.18,6.16,0.958,12.0,53.6,CCCCCCCCCCCCSc1cc(C)sc1-c1sc(-c2sc(-c3cc4c(-c5ccc([Si](CCC)(CCC)CCC)s5)c5sc(C)cc5c(-c5ccc([Si](CCC)(CCC)CCC)s5)c4s3)cc2SCCCCCCCCCCCC)c2c1C(=O)N(CC(CCCCCC)CCCCCCCC)C2=O.CCCCCCC1(CCCCCC)c2cc3c(cc2-c2sc(/C=C4\C(=O)c5ccccc5C4=C(C#N)C#N)cc21)C(CCCCCC)(CCCCCC)c1cc(/C=C2\C(=O)c4ccccc4C2=C(C#N)C#N)sc1-3,[C][C][C][C][C][C][C][C][C][C][C][C][S][C][C][=C][Branch1][C][C][S][C][=Ring1][=Branch1][C][S][C][Branch2][Branch2][Ring2][C][S][C][Branch2][=Branch1][N][C][=C][C][=C][Branch2][Ring1][Branch2][C][=C][C][=C][Branch1][#C][Si][Branch1][Ring2][C][C][C][Branch1][Ring2][C][C][C][C][C][C][S][Ring1][#C][C][S][C][Branch1][C][C][=C][C][=Ring1][=Branch1][C][Branch2][Ring1][Branch2][C][=C][C][=C][Branch1][#C][Si][Branch1][Ring2][C][C][C][Branch1][Ring2][C][C][C][C][C][C][S][Ring1][#C][=C][Ring2][Ring2][Branch2][S][Ring2][Ring2][O][=C][C][=Ring2][Ring2][S][S][C][C][C][C][C][C][C][C][C][C][C][C][=C][C][=Ring2][=Branch1][C][C][=Branch1][C][=O][N][Branch2][Ring1][Ring1][C][C][Branch1][#Branch1][C][C][C][C][C][C][C][C][C][C][C][C][C][C][C][Ring2][Ring1][=Branch1][=O].[C][C][C][C][C][C][C][Branch1][#Branch1][C][C][C][C][C][C][C][=C][C][=C][Branch2][Ring2][O][C][=C][Ring1][=Branch1][C][S][C][Branch2][Ring1][=Branch2][/C][=C][\C][=Branch1][C][=O][C][=C][C][=C][C][=C][Ring1][=Branch1][C][Ring1][#Branch2][=C][Branch1][Ring1][C][#N][C][#N][=C][C][=Ring2][Ring1][Branch1][Ring2][Ring2][C][C][Branch1][#Branch1][C][C][C][C][C][C][Branch1][#Branch1][C][C][C][C][C][C][C][C][=C][Branch2][Ring1][=Branch2][/C][=C][\C][=Branch1][C][=O][C][=C][C][=C][C][=C][Ring1][=Branch1][C][Ring1][#Branch2][=C][Branch1][Ring1][C][#N][C][#N][S][C][=Ring2][Ring1][Branch1][Ring2][Branch1][O],{CCCCCCCCCCCCSc1cc([$])sc1-c1sc(-c2sc(-c3cc4c(-c5ccc([Si](CCC)(CCC)CCC)s5)c5sc([$])cc5c(-c5ccc([Si](CCC)(CCC)CCC)s5)c4s3)cc2SCCCCCCCCCCCC)c2c1C(=O)N(CC(CCCCCC)CCCCCCCC)C2=O}.CCCCCCC1(CCCCCC)c2cc3c(cc2-c2sc(/C=C4\C(=O)c5ccccc5C4=C(C#N)C#N)cc21)C(CCCCCC)(CCCCCC)c1cc(/C=C2\C(=O)c4ccccc4C2=C(C#N)C#N)sc1-3
PJ2,IDIC,-5.14,-3.33,-5.706,-4.002666666666667,0.667,CF,DIO,130.0,PEDOT:PSS,PDINO,12.01,12.02,0.939,17.0,75.3,CCCCC(CC)Cc1sc(CC(CC)CCCC)c2c1C(=O)c1c(-c3ccc(C)s3)sc(-c3ccc(-c4cc5c(-c6ccc([Si](CCC)(CCC)CCC)s6)c6sc(C)cc6c(-c6ccc([Si](CCC)(CCC)CCC)s6)c5s4)s3)c1C2=O.CCCCCCC1(CCCCCC)c2cc3c(cc2-c2sc(/C=C4\C(=O)c5ccccc5C4=C(C#N)C#N)cc21)C(CCCCCC)(CCCCCC)c1cc(/C=C2\C(=O)c4ccccc4C2=C(C#N)C#N)sc1-3,[C][C][C][C][C][Branch1][Ring1][C][C][C][C][S][C][Branch1][O][C][C][Branch1][Ring1][C][C][C][C][C][C][=C][C][=Ring1][=N][C][=Branch1][C][=O][C][=C][Branch1][O][C][=C][C][=C][Branch1][C][C][S][Ring1][=Branch1][S][C][Branch2][#Branch1][#Branch1][C][=C][C][=C][Branch2][=Branch1][N][C][=C][C][=C][Branch2][Ring1][Branch2][C][=C][C][=C][Branch1][#C][Si][Branch1][Ring2][C][C][C][Branch1][Ring2][C][C][C][C][C][C][S][Ring1][#C][C][S][C][Branch1][C][C][=C][C][=Ring1][=Branch1][C][Branch2][Ring1][Branch2][C][=C][C][=C][Branch1][#C][Si][Branch1][Ring2][C][C][C][Branch1][Ring2][C][C][C][C][C][C][S][Ring1][#C][=C][Ring2][Ring2][Branch2][S][Ring2][Ring2][O][S][Ring2][Ring2][S][=C][Ring2][Branch1][O][C][Ring2][Branch1][S][=O].[C][C][C][C][C][C][C][Branch1][#Branch1][C][C][C][C][C][C][C][=C][C][=C][Branch2][Ring2][O][C][=C][Ring1][=Branch1][C][S][C][Branch2][Ring1][=Branch2][/C][=C][\C][=Branch1][C][=O][C][=C][C][=C][C][=C][Ring1][=Branch1][C][Ring1][#Branch2][=C][Branch1][Ring1][C][#N][C][#N][=C][C][=Ring2][Ring1][Branch1][Ring2][Ring2][C][C][Branch1][#Branch1][C][C][C][C][C][C][Branch1][#Branch1][C][C][C][C][C][C][C][C][=C][Branch2][Ring1][=Branch2][/C][=C][\C][=Branch1][C][=O][C][=C][C][=C][C][=C][Ring1][=Branch1][C][Ring1][#Branch2][=C][Branch1][Ring1][C][#N][C][#N][S][C][=Ring2][Ring1][Branch1][Ring2][Branch1][O],{CCCCC(CC)Cc1sc(CC(CC)CCCC)c2c1C(=O)c1c(-c3ccc([$])s3)sc(-c3ccc(-c4cc5c(-c6ccc([Si](CCC)(CCC)CCC)s6)c6sc([$])cc6c(-c6ccc([Si](CCC)(CCC)CCC)s6)c5s4)s3)c1C2=O}.CCCCCCC1(CCCCCC)c2cc3c(cc2-c2sc(/C=C4\C(=O)c5ccccc5C4=C(C#N)C#N)cc21)C(CCCCCC)(CCCCCC)c1cc(/C=C2\C(=O)c4ccccc4C2=C(C#N)C#N)sc1-3
PJ3,m-ITIC,-5.01,-3.26,-5.526666666666667,-3.8515384615384622,0.667,CF,DIO,130.0,PEDOT:PSS,PDINO,7.76,7.74,0.96,12.7,63.5,CCCCCCCCCCC(CCCCCCCC)Cc1cc(-c2c(F)c(F)c(-c3cc(CC(CCCCCCCC)CCCCCCCCCC)c(-c4cc5c(-c6ccc([Si](CCC)(CCC)CCC)s6)c6sc(C)cc6c(-c6ccc([Si](CCC)(CCC)CCC)s6)c5s4)s3)c3nsnc23)sc1C.CCCCCCc1cccc(C2(c3cccc(CCCCCC)c3)c3cc4c(cc3-c3sc5cc(/C=C6\C(=O)c7ccccc7C6=C(C#N)C#N)sc5c32)C(c2cccc(CCCCCC)c2)(c2cccc(CCCCCC)c2)c2c-4sc3cc(/C=C4\C(=O)c5ccccc5C4=C(C#N)C#N)sc23)c1,[C][C][C][C][C][C][C][C][C][C][C][Branch1][=Branch2][C][C][C][C][C][C][C][C][C][C][C][=C][Branch2][#Branch2][#Branch1][C][=C][Branch1][C][F][C][Branch1][C][F][=C][Branch2][Branch2][S][C][=C][C][Branch2][Ring1][#Branch1][C][C][Branch1][=Branch2][C][C][C][C][C][C][C][C][C][C][C][C][C][C][C][C][C][C][=C][Branch2][=Branch1][N][C][=C][C][=C][Branch2][Ring1][Branch2][C][=C][C][=C][Branch1][#C][Si][Branch1][Ring2][C][C][C][Branch1][Ring2][C][C][C][C][C][C][S][Ring1][#C][C][S][C][Branch1][C][C][=C][C][=Ring1][=Branch1][C][Branch2][Ring1][Branch2][C][=C][C][=C][Branch1][#C][Si][Branch1][Ring2][C][C][C][Branch1][Ring2][C][C][C][C][C][C][S][Ring1][#C][=C][Ring2][Ring2][Branch2][S][Ring2][Ring2][O][S][Ring2][=Branch1][Ring2][C][=N][S][N][=C][Ring2][=Branch1][#C][Ring1][Branch1][S][C][=Ring2][#Branch1][Ring2][C].[C][C][C][C][C][C][C][=C][C][=C][C][Branch2][O][N][C][Branch1][P][C][=C][C][=C][C][Branch1][#Branch1][C][C][C][C][C][C][=C][Ring1][N][C][=C][C][=C][Branch2][Ring2][P][C][=C][Ring1][=Branch1][C][S][C][C][=C][Branch2][Ring1][=Branch2][/C][=C][\C][=Branch1][C][=O][C][=C][C][=C][C][=C][Ring1][=Branch1][C][Ring1][#Branch2][=C][Branch1][Ring1][C][#N][C][#N][S][C][=Ring2][Ring1][Branch1][C][=Ring2][Ring1][Branch2][Ring2][Ring2][O][C][Branch1][P][C][=C][C][=C][C][Branch1][#Branch1][C][C][C][C][C][C][=C][Ring1][N][Branch1][P][C][=C][C][=C][C][Branch1][#Branch1][C][C][C][C][C][C][=C][Ring1][N][C][=C][Ring2][Branch1][#Branch1][S][C][C][=C][Branch2][Ring1][=Branch2][/C][=C][\C][=Branch1][C][=O][C][=C][C][=C][C][=C][Ring1][=Branch1][C][Ring1][#Branch2][=C][Branch1][Ring1][C][#N][C][#N][S][C][Ring2][Ring1][Branch2][=Ring2][Ring1][Branch1][=C][Ring2][Branch2][C],{CCCCCCCCCCC(CCCCCCCC)Cc1cc(-c2c(F)c(F)c(-c3cc(CC(CCCCCCCC)CCCCCCCCCC)c(-c4cc5c(-c6ccc([Si](CCC)(CCC)CCC)s6)c6sc([$])cc6c(-c6ccc([Si](CCC)(CCC)CCC)s6)c5s4)s3)c3nsnc23)sc1[$]}.CCCCCCc1cccc(C2(c3cccc(CCCCCC)c3)c3cc4c(cc3-c3sc5cc(/C=C6\C(=O)c7ccccc7C6=C(C#N)C#N)sc5c32)C(c2cccc(CCCCCC)c2)(c2cccc(CCCCCC)c2)c2c-4sc3cc(/C=C4\C(=O)c5ccccc5C4=C(C#N)C#N)sc23)c1
PJ3,IDIC,-5.01,-3.26,-5.706,-4.002666666666667,0.667,CF,DIO,130.0,PEDOT:PSS,PDINO,8.11,8.11,0.908,12.8,69.8,CCCCCCCCCCC(CCCCCCCC)Cc1cc(-c2c(F)c(F)c(-c3cc(CC(CCCCCCCC)CCCCCCCCCC)c(-c4cc5c(-c6ccc([Si](CCC)(CCC)CCC)s6)c6sc(C)cc6c(-c6ccc([Si](CCC)(CCC)CCC)s6)c5s4)s3)c3nsnc23)sc1C.CCCCCCC1(CCCCCC)c2cc3c(cc2-c2sc(/C=C4\C(=O)c5ccccc5C4=C(C#N)C#N)cc21)C(CCCCCC)(CCCCCC)c1cc(/C=C2\C(=O)c4ccccc4C2=C(C#N)C#N)sc1-3,[C][C][C][C][C][C][C][C][C][C][C][Branch1][=Branch2][C][C][C][C][C][C][C][C][C][C][C][=C][Branch2][#Branch2][#Branch1][C][=C][Branch1][C][F][C][Branch1][C][F][=C][Branch2][Branch2][S][C][=C][C][Branch2][Ring1][#Branch1][C][C][Branch1][=Branch2][C][C][C][C][C][C][C][C][C][C][C][C][C][C][C][C][C][C][=C][Branch2][=Branch1][N][C][=C][C][=C][Branch2][Ring1][Branch2][C][=C][C][=C][Branch1][#C][Si][Branch1][Ring2][C][C][C][Branch1][Ring2][C][C][C][C][C][C][S][Ring1][#C][C][S][C][Branch1][C][C][=C][C][=Ring1][=Branch1][C][Branch2][Ring1][Branch2][C][=C][C][=C][Branch1][#C][Si][Branch1][Ring2][C][C][C][Branch1][Ring2][C][C][C][C][C][C][S][Ring1][#C][=C][Ring2][Ring2][Branch2][S][Ring2][Ring2][O][S][Ring2][=Branch1][Ring2][C][=N][S][N][=C][Ring2][=Branch1][#C][Ring1][Branch1][S][C][=Ring2][#Branch1][Ring2][C].[C][C][C][C][C][C][C][Branch1][#Branch1][C][C][C][C][C][C][C][=C][C][=C][Branch2][Ring2][O][C][=C][Ring1][=Branch1][C][S][C][Branch2][Ring1][=Branch2][/C][=C][\C][=Branch1][C][=O][C][=C][C][=C][C][=C][Ring1][=Branch1][C][Ring1][#Branch2][=C][Branch1][Ring1][C][#N][C][#N][=C][C][=Ring2][Ring1][Branch1][Ring2][Ring2][C][C][Branch1][#Branch1][C][C][C][C][C][C][Branch1][#Branch1][C][C][C][C][C][C][C][C][=C][Branch2][Ring1][=Branch2][/C][=C][\C][=Branch1][C][=O][C][=C][C][=C][C][=C][Ring1][=Branch1][C][Ring1][#Branch2][=C][Branch1][Ring1][C][#N][C][#N][S][C][=Ring2][Ring1][Branch1][Ring2][Branch1][O],{CCCCCCCCCCC(CCCCCCCC)Cc1cc(-c2c(F)c(F)c(-c3cc(CC(CCCCCCCC)CCCCCCCCCC)c(-c4cc5c(-c6ccc([Si](CCC)(CCC)CCC)s6)c6sc([$])cc6c(-c6ccc([Si](CCC)(CCC)CCC)s6)c5s4)s3)c3nsnc23)sc1[$]}.CCCCCCC1(CCCCCC)c2cc3c(cc2-c2sc(/C=C4\C(=O)c5ccccc5C4=C(C#N)C#N)cc21)C(CCCCCC)(CCCCCC)c1cc(/C=C2\C(=O)c4ccccc4C2=C(C#N)C#N)sc1-3
2D-PBTCl,ITIC,-5.45,-3.6,-5.574146341463415,-3.915,1.0,CB,DIO,25.0,MoOx,ZnO,8.81,8.81,0.91,15.79,61.32,CCCCC(CC)COC(=O)c1ccc(-c2sc3c(-c4cc5c(-c6ccc(CC(CC)CCCC)s6)c6sc(C)cc6c(-c6ccc(CC(CC)CCCC)s6)c5s4)sc(C)c3c2Cl)s1.CCCCCCc1ccc(C2(c3ccc(CCCCCC)cc3)c3cc4c(cc3-c3sc5cc(/C=C6\C(=O)c7ccccc7C6=C(C#N)C#N)sc5c32)C(c2ccc(CCCCCC)cc2)(c2ccc(CCCCCC)cc2)c2c-4sc3cc(/C=C4\C(=O)c5ccccc5C4=C(C#N)C#N)sc23)cc1,[C][C][C][C][C][Branch1][Ring1][C][C][C][O][C][=Branch1][C][=O][C][=C][C][=C][Branch2][#Branch1][=Branch2][C][S][C][=C][Branch2][=Branch1][Ring2][C][=C][C][=C][Branch2][Ring1][Ring2][C][=C][C][=C][Branch1][O][C][C][Branch1][Ring1][C][C][C][C][C][C][S][Ring1][=N][C][S][C][Branch1][C][C][=C][C][=Ring1][=Branch1][C][Branch2][Ring1][Ring2][C][=C][C][=C][Branch1][O][C][C][Branch1][Ring1][C][C][C][C][C][C][S][Ring1][=N][=C][Ring2][Ring2][Ring2][S][Ring2][Ring2][#Branch1][S][C][Branch1][C][C][=C][Ring2][Ring2][=N][C][=Ring2][Ring2][S][Cl][S][Ring2][Branch1][=Branch1].[C][C][C][C][C][C][C][=C][C][=C][Branch2][O][N][C][Branch1][P][C][=C][C][=C][Branch1][#Branch1][C][C][C][C][C][C][C][=C][Ring1][N][C][=C][C][=C][Branch2][Ring2][P][C][=C][Ring1][=Branch1][C][S][C][C][=C][Branch2][Ring1][=Branch2][/C][=C][\C][=Branch1][C][=O][C][=C][C][=C][C][=C][Ring1][=Branch1][C][Ring1][#Branch2][=C][Branch1][Ring1][C][#N][C][#N][S][C][=Ring2][Ring1][Branch1][C][=Ring2][Ring1][Branch2][Ring2][Ring2][O][C][Branch1][P][C][=C][C][=C][Branch1][#Branch1][C][C][C][C][C][C][C][=C][Ring1][N][Branch1][P][C][=C][C][=C][Branch1][#Branch1][C][C][C][C][C][C][C][=C][Ring1][N][C][=C][Ring2][Branch1][#Branch1][S][C][C][=C][Branch2][Ring1][=Branch2][/C][=C][\C][=Branch1][C][=O][C][=C][C][=C][C][=C][Ring1][=Branch1][C][Ring1][#Branch2][=C][Branch1][Ring1][C][#N][C][#N][S][C][Ring2][Ring1][Branch2][=Ring2][Ring1][Branch1][C][=C][Ring2][Branch2][C],{CCCCC(CC)COC(=O)c1ccc(-c2sc3c(-c4cc5c(-c6ccc(CC(CC)CCCC)s6)c6sc([$])cc6c(-c6ccc(CC(CC)CCCC)s6)c5s4)sc([$])c3c2Cl)s1}.CCCCCCc1ccc(C2(c3ccc(CCCCCC)cc3)c3cc4c(cc3-c3sc5cc(/C=C6\C(=O)c7ccccc7C6=C(C#N)C#N)sc5c32)C(c2ccc(CCCCCC)cc2)(c2ccc(CCCCCC)cc2)c2c-4sc3cc(/C=C4\C(=O)c5ccccc5C4=C(C#N)C#N)sc23)cc1