Donor,Acceptor,HOMO_D_eV,LUMO_D_eV,HOMO_A_eV,LUMO_A_eV,D_A_ratio_m_m,solvent,solvent_additive,annealing_temperature,hole_contact_layer,electron_contact_layer,PCE_percent,calc_PCE_percent,Voc_V,Jsc_mA_cm_pow_neg2,FF_percent,DA_SMILES,DA_SELFIES,DA_BigSMILES
PBDB-T-SF,IT-4F,-5.41,-3.62,-5.66875,-4.060416666666667,1.0,CB,DIO,25.0,MoOx,ZnO,13.1,13.1,0.88,20.88,71.3,CCCCC(CC)Cc1sc(-c2c3cc(-c4ccc(-c5sc(-c6ccc(C)s6)c6c5C(=O)c5c(CC(CC)CCCC)sc(CC(CC)CCCC)c5C6=O)s4)sc3c(-c3cc(F)c(CC(CC)CCCC)s3)c3cc(C)sc23)cc1F.CCCCCCc1ccc(C2(c3ccc(CCCCCC)cc3)c3cc4c(cc3-c3sc5cc(/C=C6\C(=O)c7cc(F)c(F)cc7C6=C(C#N)C#N)sc5c32)C(c2ccc(CCCCCC)cc2)(c2ccc(CCCCCC)cc2)c2c-4sc3cc(/C=C4\C(=O)c5cc(F)c(F)cc5C4=C(C#N)C#N)sc23)cc1,[C][C][C][C][C][Branch1][Ring1][C][C][C][C][S][C][Branch2][=Branch2][O][C][=C][C][=C][Branch2][=Branch1][Branch2][C][=C][C][=C][Branch2][Branch1][=N][C][S][C][Branch1][O][C][=C][C][=C][Branch1][C][C][S][Ring1][=Branch1][=C][C][=Ring1][O][C][=Branch1][C][=O][C][=C][Branch1][O][C][C][Branch1][Ring1][C][C][C][C][C][C][S][C][Branch1][O][C][C][Branch1][Ring1][C][C][C][C][C][C][=C][Ring2][Ring1][Branch1][C][Ring2][Ring1][#Branch2][=O][S][Ring2][Ring2][=Branch2][S][C][Ring2][Ring2][=C][=C][Branch2][Ring1][#Branch1][C][=C][C][Branch1][C][F][=C][Branch1][O][C][C][Branch1][Ring1][C][C][C][C][C][C][S][Ring1][=C][C][C][=C][Branch1][C][C][S][C][Ring2][=Branch1][Ring2][=Ring1][=Branch1][=C][C][=Ring2][=Branch1][=Branch2][F].[C][C][C][C][C][C][C][=C][C][=C][Branch2][N][Branch2][C][Branch1][P][C][=C][C][=C][Branch1][#Branch1][C][C][C][C][C][C][C][=C][Ring1][N][C][=C][C][=C][Branch2][Branch1][#Branch1][C][=C][Ring1][=Branch1][C][S][C][C][=C][Branch2][Ring1][#C][/C][=C][\C][=Branch1][C][=O][C][=C][C][Branch1][C][F][=C][Branch1][C][F][C][=C][Ring1][Branch2][C][Ring1][N][=C][Branch1][Ring1][C][#N][C][#N][S][C][=Ring2][Ring1][#Branch1][C][=Ring2][Ring1][#Branch2][Ring2][Ring2][=N][C][Branch1][P][C][=C][C][=C][Branch1][#Branch1][C][C][C][C][C][C][C][=C][Ring1][N][Branch1][P][C][=C][C][=C][Branch1][#Branch1][C][C][C][C][C][C][C][=C][Ring1][N][C][=C][Ring2][Branch1][=Branch2][S][C][C][=C][Branch2][Ring1][#C][/C][=C][\C][=Branch1][C][=O][C][=C][C][Branch1][C][F][=C][Branch1][C][F][C][=C][Ring1][Branch2][C][Ring1][N][=C][Branch1][Ring1][C][#N][C][#N][S][C][Ring2][Ring1][#Branch2][=Ring2][Ring1][#Branch1][C][=C][Ring2][Branch2][=Branch1],{CCCCC(CC)Cc1sc(-c2c3cc(-c4ccc(-c5sc(-c6ccc([$])s6)c6c5C(=O)c5c(CC(CC)CCCC)sc(CC(CC)CCCC)c5C6=O)s4)sc3c(-c3cc(F)c(CC(CC)CCCC)s3)c3cc([$])sc23)cc1F}.CCCCCCc1ccc(C2(c3ccc(CCCCCC)cc3)c3cc4c(cc3-c3sc5cc(/C=C6\C(=O)c7cc(F)c(F)cc7C6=C(C#N)C#N)sc5c32)C(c2ccc(CCCCCC)cc2)(c2ccc(CCCCCC)cc2)c2c-4sc3cc(/C=C4\C(=O)c5cc(F)c(F)cc5C4=C(C#N)C#N)sc23)cc1
PBDB-T,ITIC,-5.297714285714285,-3.4170000000000003,-5.574146341463415,-3.915,1.0,CB,DIO,25.0,MoOx,ZnO,11.05,11.05,0.9,17.03,72.1,CCCCC(CC)Cc1ccc(-c2c3cc(-c4ccc(-c5sc(-c6ccc(C)s6)c6c5C(=O)c5c(CC(CC)CCCC)sc(CC(CC)CCCC)c5C6=O)s4)sc3c(-c3ccc(CC(CC)CCCC)s3)c3cc(C)sc23)s1.CCCCCCc1ccc(C2(c3ccc(CCCCCC)cc3)c3cc4c(cc3-c3sc5cc(/C=C6\C(=O)c7ccccc7C6=C(C#N)C#N)sc5c32)C(c2ccc(CCCCCC)cc2)(c2ccc(CCCCCC)cc2)c2c-4sc3cc(/C=C4\C(=O)c5ccccc5C4=C(C#N)C#N)sc23)cc1,[C][C][C][C][C][Branch1][Ring1][C][C][C][C][=C][C][=C][Branch2][=Branch2][Branch2][C][=C][C][=C][Branch2][=Branch1][Branch2][C][=C][C][=C][Branch2][Branch1][=N][C][S][C][Branch1][O][C][=C][C][=C][Branch1][C][C][S][Ring1][=Branch1][=C][C][=Ring1][O][C][=Branch1][C][=O][C][=C][Branch1][O][C][C][Branch1][Ring1][C][C][C][C][C][C][S][C][Branch1][O][C][C][Branch1][Ring1][C][C][C][C][C][C][=C][Ring2][Ring1][Branch1][C][Ring2][Ring1][#Branch2][=O][S][Ring2][Ring2][=Branch2][S][C][Ring2][Ring2][=C][=C][Branch2][Ring1][Ring2][C][=C][C][=C][Branch1][O][C][C][Branch1][Ring1][C][C][C][C][C][C][S][Ring1][=N][C][C][=C][Branch1][C][C][S][C][Ring2][=Branch1][Ring1][=Ring1][=Branch1][S][Ring2][=Branch1][Branch2].[C][C][C][C][C][C][C][=C][C][=C][Branch2][O][N][C][Branch1][P][C][=C][C][=C][Branch1][#Branch1][C][C][C][C][C][C][C][=C][Ring1][N][C][=C][C][=C][Branch2][Ring2][P][C][=C][Ring1][=Branch1][C][S][C][C][=C][Branch2][Ring1][=Branch2][/C][=C][\C][=Branch1][C][=O][C][=C][C][=C][C][=C][Ring1][=Branch1][C][Ring1][#Branch2][=C][Branch1][Ring1][C][#N][C][#N][S][C][=Ring2][Ring1][Branch1][C][=Ring2][Ring1][Branch2][Ring2][Ring2][O][C][Branch1][P][C][=C][C][=C][Branch1][#Branch1][C][C][C][C][C][C][C][=C][Ring1][N][Branch1][P][C][=C][C][=C][Branch1][#Branch1][C][C][C][C][C][C][C][=C][Ring1][N][C][=C][Ring2][Branch1][#Branch1][S][C][C][=C][Branch2][Ring1][=Branch2][/C][=C][\C][=Branch1][C][=O][C][=C][C][=C][C][=C][Ring1][=Branch1][C][Ring1][#Branch2][=C][Branch1][Ring1][C][#N][C][#N][S][C][Ring2][Ring1][Branch2][=Ring2][Ring1][Branch1][C][=C][Ring2][Branch2][C],{CCCCC(CC)Cc1ccc(-c2c3cc(-c4ccc(-c5sc(-c6ccc([$])s6)c6c5C(=O)c5c(CC(CC)CCCC)sc(CC(CC)CCCC)c5C6=O)s4)sc3c(-c3ccc(CC(CC)CCCC)s3)c3cc([$])sc23)s1}.CCCCCCc1ccc(C2(c3ccc(CCCCCC)cc3)c3cc4c(cc3-c3sc5cc(/C=C6\C(=O)c7ccccc7C6=C(C#N)C#N)sc5c32)C(c2ccc(CCCCCC)cc2)(c2ccc(CCCCCC)cc2)c2c-4sc3cc(/C=C4\C(=O)c5ccccc5C4=C(C#N)C#N)sc23)cc1
PCDTBT-C12,SM1,-5.23,-3.26,-5.93,-3.5,0.5,DCB,_,90.0,PEDOT:PSS,LiF,2.78,2.79,1.04,4.79,56.0,CCCCCCCCCCCCSOc1c(OSCCCCCCCCCCCC)c(-c2ccc(-c3ccc4c5ccc(C)cc5n(CCCCCCCC)c4c3)s2)c2nsnc2c1-c1ccc(C)s1.CCCCCCCCN1C(=O)c2cccc3c(-c4ccc(-c5ccc(-c6ccc(-c7ccc8c9c(cccc79)C(=O)N(CCCCCCCC)C8=O)s6)cc5)s4)ccc(c23)C1=O,[C][C][C][C][C][C][C][C][C][C][C][C][S][O][C][C][Branch1][#C][O][S][C][C][C][C][C][C][C][C][C][C][C][C][=C][Branch2][Ring2][=C][C][=C][C][=C][Branch2][Ring2][Ring1][C][=C][C][=C][C][=C][C][=C][Branch1][C][C][C][=C][Ring1][#Branch1][N][Branch1][=Branch2][C][C][C][C][C][C][C][C][C][Ring2][Ring1][C][=C][Ring2][Ring1][=Branch1][S][Ring2][Ring1][O][C][=N][S][N][=C][Ring1][Branch1][C][=Ring2][Branch1][C][C][=C][C][=C][Branch1][C][C][S][Ring1][=Branch1].[C][C][C][C][C][C][C][C][N][C][=Branch1][C][=O][C][=C][C][=C][C][=C][Branch2][=Branch1][#Branch1][C][=C][C][=C][Branch2][Branch1][N][C][=C][C][=C][Branch2][Ring2][S][C][=C][C][=C][Branch2][Ring2][Branch1][C][=C][C][=C][C][=C][Branch1][=Branch2][C][=C][C][=C][Ring1][#Branch2][Ring1][=Branch1][C][=Branch1][C][=O][N][Branch1][=Branch2][C][C][C][C][C][C][C][C][C][Ring2][Ring1][Ring1][=O][S][Ring2][Ring1][N][C][=C][Ring2][Ring2][C][S][Ring2][Ring2][#Branch1][C][=C][C][=Branch1][Branch2][=C][Ring2][Ring2][P][Ring2][Ring2][=N][C][Ring2][Branch1][Branch1][=O],{CCCCCCCCCCCCSOc1c(OSCCCCCCCCCCCC)c(-c2ccc(-c3ccc4c5ccc([$])cc5n(CCCCCCCC)c4c3)s2)c2nsnc2c1-c1ccc([$])s1}.CCCCCCCCN1C(=O)c2cccc3c(-c4ccc(-c5ccc(-c6ccc(-c7ccc8c9c(cccc79)C(=O)N(CCCCCCCC)C8=O)s6)cc5)s4)ccc(c23)C1=O
PCDTBT-C12,SM2,-5.23,-3.26,-5.98,-3.62,0.5,DCB,_,90.0,PEDOT:PSS,LiF,0.74,0.74,1.11,2.21,30.0,CCCCCCCCCCCCSOc1c(OSCCCCCCCCCCCC)c(-c2ccc(-c3ccc4c5ccc(C)cc5n(CCCCCCCC)c4c3)s2)c2nsnc2c1-c1ccc(C)s1.CCCCCCCCCCCCN1C(=O)c2cccc3c(-c4ccc(-c5ccc(-c6ccc(-c7ccc8c9c(cccc79)C(=O)N(CCCCCCCCCCCC)C8=O)s6)c(F)c5)s4)ccc(c23)C1=O,[C][C][C][C][C][C][C][C][C][C][C][C][S][O][C][C][Branch1][#C][O][S][C][C][C][C][C][C][C][C][C][C][C][C][=C][Branch2][Ring2][=C][C][=C][C][=C][Branch2][Ring2][Ring1][C][=C][C][=C][C][=C][C][=C][Branch1][C][C][C][=C][Ring1][#Branch1][N][Branch1][=Branch2][C][C][C][C][C][C][C][C][C][Ring2][Ring1][C][=C][Ring2][Ring1][=Branch1][S][Ring2][Ring1][O][C][=N][S][N][=C][Ring1][Branch1][C][=Ring2][Branch1][C][C][=C][C][=C][Branch1][C][C][S][Ring1][=Branch1].[C][C][C][C][C][C][C][C][C][C][C][C][N][C][=Branch1][C][=O][C][=C][C][=C][C][=C][Branch2][=Branch1][=C][C][=C][C][=C][Branch2][=Branch1][Ring1][C][=C][C][=C][Branch2][Branch1][Ring2][C][=C][C][=C][Branch2][Ring2][=Branch2][C][=C][C][=C][C][=C][Branch1][=Branch2][C][=C][C][=C][Ring1][#Branch2][Ring1][=Branch1][C][=Branch1][C][=O][N][Branch1][=N][C][C][C][C][C][C][C][C][C][C][C][C][C][Ring2][Ring1][#Branch1][=O][S][Ring2][Ring1][S][C][Branch1][C][F][=C][Ring2][Ring2][#Branch1][S][Ring2][Ring2][N][C][=C][C][=Branch1][Branch2][=C][Ring2][Branch1][=Branch1][Ring2][Branch1][C][C][Ring2][Branch1][#Branch2][=O],{CCCCCCCCCCCCSOc1c(OSCCCCCCCCCCCC)c(-c2ccc(-c3ccc4c5ccc([$])cc5n(CCCCCCCC)c4c3)s2)c2nsnc2c1-c1ccc([$])s1}.CCCCCCCCCCCCN1C(=O)c2cccc3c(-c4ccc(-c5ccc(-c6ccc(-c7ccc8c9c(cccc79)C(=O)N(CCCCCCCCCCCC)C8=O)s6)c(F)c5)s4)ccc(c23)C1=O
PCDTBT-C12,SM3,-5.23,-3.26,-5.95,-3.68,0.5,DCB,_,90.0,PEDOT:PSS,LiF,0.56,0.56,1.09,1.71,30.0,CCCCCCCCCCCCSOc1c(OSCCCCCCCCCCCC)c(-c2ccc(-c3ccc4c5ccc(C)cc5n(CCCCCCCC)c4c3)s2)c2nsnc2c1-c1ccc(C)s1.CCCCCCCCOc1cc(-c2ccc(-c3ccc4c5c(cccc35)C(=O)N(CCCCCCCC)C4=O)s2)c(F)cc1-c1ccc(-c2ccc3c4c(cccc24)C(=O)N(CCCCCCCC)C3=O)s1,[C][C][C][C][C][C][C][C][C][C][C][C][S][O][C][C][Branch1][#C][O][S][C][C][C][C][C][C][C][C][C][C][C][C][=C][Branch2][Ring2][=C][C][=C][C][=C][Branch2][Ring2][Ring1][C][=C][C][=C][C][=C][C][=C][Branch1][C][C][C][=C][Ring1][#Branch1][N][Branch1][=Branch2][C][C][C][C][C][C][C][C][C][Ring2][Ring1][C][=C][Ring2][Ring1][=Branch1][S][Ring2][Ring1][O][C][=N][S][N][=C][Ring1][Branch1][C][=Ring2][Branch1][C][C][=C][C][=C][Branch1][C][C][S][Ring1][=Branch1].[C][C][C][C][C][C][C][C][O][C][=C][C][Branch2][Ring2][S][C][=C][C][=C][Branch2][Ring2][Branch1][C][=C][C][=C][C][=C][Branch1][=Branch2][C][=C][C][=C][Ring1][#Branch2][Ring1][=Branch1][C][=Branch1][C][=O][N][Branch1][=Branch2][C][C][C][C][C][C][C][C][C][Ring2][Ring1][Ring1][=O][S][Ring2][Ring1][N][=C][Branch1][C][F][C][=C][Ring2][Ring2][Ring1][C][=C][C][=C][Branch2][Ring2][Branch1][C][=C][C][=C][C][=C][Branch1][=Branch2][C][=C][C][=C][Ring1][#Branch2][Ring1][=Branch1][C][=Branch1][C][=O][N][Branch1][=Branch2][C][C][C][C][C][C][C][C][C][Ring2][Ring1][Ring1][=O][S][Ring2][Ring1][N],{CCCCCCCCCCCCSOc1c(OSCCCCCCCCCCCC)c(-c2ccc(-c3ccc4c5ccc([$])cc5n(CCCCCCCC)c4c3)s2)c2nsnc2c1-c1ccc([$])s1}.CCCCCCCCOc1cc(-c2ccc(-c3ccc4c5c(cccc35)C(=O)N(CCCCCCCC)C4=O)s2)c(F)cc1-c1ccc(-c2ccc3c4c(cccc24)C(=O)N(CCCCCCCC)C3=O)s1
PCDTBT-C12,SM4,-5.23,-3.26,-5.8,-3.65,0.5,DCB,_,90.0,PEDOT:PSS,LiF,0.13,0.13,1.24,0.37,28.0,CCCCCCCCCCCCSOc1c(OSCCCCCCCCCCCC)c(-c2ccc(-c3ccc4c5ccc(C)cc5n(CCCCCCCC)c4c3)s2)c2nsnc2c1-c1ccc(C)s1.CCCCCCCCOc1cc(-c2ccc(-c3ccc4c5c(cccc35)C(=O)N(CCCCCCCC)C4=O)s2)c(OCCCCCCCC)cc1-c1ccc(-c2ccc3c4c(cccc24)C(=O)N(CCCCCCCC)C3=O)s1,[C][C][C][C][C][C][C][C][C][C][C][C][S][O][C][C][Branch1][#C][O][S][C][C][C][C][C][C][C][C][C][C][C][C][=C][Branch2][Ring2][=C][C][=C][C][=C][Branch2][Ring2][Ring1][C][=C][C][=C][C][=C][C][=C][Branch1][C][C][C][=C][Ring1][#Branch1][N][Branch1][=Branch2][C][C][C][C][C][C][C][C][C][Ring2][Ring1][C][=C][Ring2][Ring1][=Branch1][S][Ring2][Ring1][O][C][=N][S][N][=C][Ring1][Branch1][C][=Ring2][Branch1][C][C][=C][C][=C][Branch1][C][C][S][Ring1][=Branch1].[C][C][C][C][C][C][C][C][O][C][=C][C][Branch2][Ring2][S][C][=C][C][=C][Branch2][Ring2][Branch1][C][=C][C][=C][C][=C][Branch1][=Branch2][C][=C][C][=C][Ring1][#Branch2][Ring1][=Branch1][C][=Branch1][C][=O][N][Branch1][=Branch2][C][C][C][C][C][C][C][C][C][Ring2][Ring1][Ring1][=O][S][Ring2][Ring1][N][=C][Branch1][#Branch2][O][C][C][C][C][C][C][C][C][C][=C][Ring2][Ring2][O][C][=C][C][=C][Branch2][Ring2][Branch1][C][=C][C][=C][C][=C][Branch1][=Branch2][C][=C][C][=C][Ring1][#Branch2][Ring1][=Branch1][C][=Branch1][C][=O][N][Branch1][=Branch2][C][C][C][C][C][C][C][C][C][Ring2][Ring1][Ring1][=O][S][Ring2][Ring1][N],{CCCCCCCCCCCCSOc1c(OSCCCCCCCCCCCC)c(-c2ccc(-c3ccc4c5ccc([$])cc5n(CCCCCCCC)c4c3)s2)c2nsnc2c1-c1ccc([$])s1}.CCCCCCCCOc1cc(-c2ccc(-c3ccc4c5c(cccc35)C(=O)N(CCCCCCCC)C4=O)s2)c(OCCCCCCCC)cc1-c1ccc(-c2ccc3c4c(cccc24)C(=O)N(CCCCCCCC)C3=O)s1
PTB7,SFBRCN,-5.175,-3.435,-5.93,-3.86,0.833,CB,DIO,25.0,MoOx,ZnO,7.34,7.15,0.85,13.85,60.7,CCCCC(CC)COC(=O)c1sc2c(-c3cc4c(OCC(CC)CCCC)c5sc(C)cc5c(OCC(CC)CCCC)c4s3)sc(C)c2c1F.CCCCCCCCOc1ccc2c(c1)-c1cc(OCCCCCCCC)ccc1C21c2cc(-c3ccc(/C=c4\sc(=C(C#N)C#N)n(CC)c4=O)c4nsnc34)ccc2-c2ccc(-c3ccc(/C=c4\sc(=C(C#N)C#N)n(CC)c4=O)c4nsnc34)cc21,[C][C][C][C][C][Branch1][Ring1][C][C][C][O][C][=Branch1][C][=O][C][S][C][=C][Branch2][Branch1][C][C][=C][C][=C][Branch1][N][O][C][C][Branch1][Ring1][C][C][C][C][C][C][C][S][C][Branch1][C][C][=C][C][=Ring1][=Branch1][C][Branch1][N][O][C][C][Branch1][Ring1][C][C][C][C][C][C][=C][Ring2][Ring1][N][S][Ring2][Ring1][#C][S][C][Branch1][C][C][=C][Ring2][Ring2][Branch1][C][=Ring2][Ring2][Branch2][F].[C][C][C][C][C][C][C][C][O][C][=C][C][=C][C][=Branch1][Ring2][=C][Ring1][=Branch1][C][=C][C][Branch1][#Branch2][O][C][C][C][C][C][C][C][C][=C][C][=C][Ring1][#C][C][Ring2][Ring1][Ring1][C][=C][C][Branch2][Ring2][Branch2][C][=C][C][=C][Branch2][Ring1][#Branch1][/C][=C][\S][C][=Branch1][Branch2][=C][Branch1][Ring1][C][#N][C][#N][N][Branch1][Ring1][C][C][C][Ring1][N][=O][C][=N][S][N][=C][Ring2][Ring1][#Branch1][Ring1][Branch1][=C][C][=C][Ring2][Ring1][=N][C][=C][C][=C][Branch2][Ring2][Branch2][C][=C][C][=C][Branch2][Ring1][#Branch1][/C][=C][\S][C][=Branch1][Branch2][=C][Branch1][Ring1][C][#N][C][#N][N][Branch1][Ring1][C][C][C][Ring1][N][=O][C][=N][S][N][=C][Ring2][Ring1][#Branch1][Ring1][Branch1][C][=C][Ring2][Ring1][=N][Ring2][Branch1][O],{CCCCC(CC)COC(=O)c1sc2c(-c3cc4c(OCC(CC)CCCC)c5sc([$])cc5c(OCC(CC)CCCC)c4s3)sc([$])c2c1F}.CCCCCCCCOc1ccc2c(c1)-c1cc(OCCCCCCCC)ccc1C21c2cc(-c3ccc(/C=c4\sc(=C(C#N)C#N)n(CC)c4=O)c4nsnc34)ccc2-c2ccc(-c3ccc(/C=c4\sc(=C(C#N)C#N)n(CC)c4=O)c4nsnc34)cc21
PTB7-Th,SFBRCN,-5.204782608695651,-3.5391891891891896,-5.93,-3.86,0.833,CB,DIO,25.0,MoOx,ZnO,9.9,9.93,0.9,17.24,64.0,CCCCC(CC)COC(=O)c1sc2c(-c3cc4c(-c5ccc(CC(CC)CCCC)s5)c5sc(C)cc5c(-c5ccc(CC(CC)CCCC)s5)c4s3)sc(C)c2c1F.CCCCCCCCOc1ccc2c(c1)-c1cc(OCCCCCCCC)ccc1C21c2cc(-c3ccc(/C=c4\sc(=C(C#N)C#N)n(CC)c4=O)c4nsnc34)ccc2-c2ccc(-c3ccc(/C=c4\sc(=C(C#N)C#N)n(CC)c4=O)c4nsnc34)cc21,[C][C][C][C][C][Branch1][Ring1][C][C][C][O][C][=Branch1][C][=O][C][S][C][=C][Branch2][=Branch1][Ring2][C][=C][C][=C][Branch2][Ring1][Ring2][C][=C][C][=C][Branch1][O][C][C][Branch1][Ring1][C][C][C][C][C][C][S][Ring1][=N][C][S][C][Branch1][C][C][=C][C][=Ring1][=Branch1][C][Branch2][Ring1][Ring2][C][=C][C][=C][Branch1][O][C][C][Branch1][Ring1][C][C][C][C][C][C][S][Ring1][=N][=C][Ring2][Ring2][Ring2][S][Ring2][Ring2][#Branch1][S][C][Branch1][C][C][=C][Ring2][Ring2][=N][C][=Ring2][Ring2][S][F].[C][C][C][C][C][C][C][C][O][C][=C][C][=C][C][=Branch1][Ring2][=C][Ring1][=Branch1][C][=C][C][Branch1][#Branch2][O][C][C][C][C][C][C][C][C][=C][C][=C][Ring1][#C][C][Ring2][Ring1][Ring1][C][=C][C][Branch2][Ring2][Branch2][C][=C][C][=C][Branch2][Ring1][#Branch1][/C][=C][\S][C][=Branch1][Branch2][=C][Branch1][Ring1][C][#N][C][#N][N][Branch1][Ring1][C][C][C][Ring1][N][=O][C][=N][S][N][=C][Ring2][Ring1][#Branch1][Ring1][Branch1][=C][C][=C][Ring2][Ring1][=N][C][=C][C][=C][Branch2][Ring2][Branch2][C][=C][C][=C][Branch2][Ring1][#Branch1][/C][=C][\S][C][=Branch1][Branch2][=C][Branch1][Ring1][C][#N][C][#N][N][Branch1][Ring1][C][C][C][Ring1][N][=O][C][=N][S][N][=C][Ring2][Ring1][#Branch1][Ring1][Branch1][C][=C][Ring2][Ring1][=N][Ring2][Branch1][O],{CCCCC(CC)COC(=O)c1sc2c(-c3cc4c(-c5ccc(CC(CC)CCCC)s5)c5sc([$])cc5c(-c5ccc(CC(CC)CCCC)s5)c4s3)sc([$])c2c1F}.CCCCCCCCOc1ccc2c(c1)-c1cc(OCCCCCCCC)ccc1C21c2cc(-c3ccc(/C=c4\sc(=C(C#N)C#N)n(CC)c4=O)c4nsnc34)ccc2-c2ccc(-c3ccc(/C=c4\sc(=C(C#N)C#N)n(CC)c4=O)c4nsnc34)cc21
PBDB-T,ITIC,-5.297714285714285,-3.4170000000000003,-5.574146341463415,-3.915,1.0,CB,DIO,100.0,PEDOT:PSS,PFN-Br,10.6,10.59,0.93,17.0,67.0,CCCCC(CC)Cc1ccc(-c2c3cc(-c4ccc(-c5sc(-c6ccc(C)s6)c6c5C(=O)c5c(CC(CC)CCCC)sc(CC(CC)CCCC)c5C6=O)s4)sc3c(-c3ccc(CC(CC)CCCC)s3)c3cc(C)sc23)s1.CCCCCCc1ccc(C2(c3ccc(CCCCCC)cc3)c3cc4c(cc3-c3sc5cc(/C=C6\C(=O)c7ccccc7C6=C(C#N)C#N)sc5c32)C(c2ccc(CCCCCC)cc2)(c2ccc(CCCCCC)cc2)c2c-4sc3cc(/C=C4\C(=O)c5ccccc5C4=C(C#N)C#N)sc23)cc1,[C][C][C][C][C][Branch1][Ring1][C][C][C][C][=C][C][=C][Branch2][=Branch2][Branch2][C][=C][C][=C][Branch2][=Branch1][Branch2][C][=C][C][=C][Branch2][Branch1][=N][C][S][C][Branch1][O][C][=C][C][=C][Branch1][C][C][S][Ring1][=Branch1][=C][C][=Ring1][O][C][=Branch1][C][=O][C][=C][Branch1][O][C][C][Branch1][Ring1][C][C][C][C][C][C][S][C][Branch1][O][C][C][Branch1][Ring1][C][C][C][C][C][C][=C][Ring2][Ring1][Branch1][C][Ring2][Ring1][#Branch2][=O][S][Ring2][Ring2][=Branch2][S][C][Ring2][Ring2][=C][=C][Branch2][Ring1][Ring2][C][=C][C][=C][Branch1][O][C][C][Branch1][Ring1][C][C][C][C][C][C][S][Ring1][=N][C][C][=C][Branch1][C][C][S][C][Ring2][=Branch1][Ring1][=Ring1][=Branch1][S][Ring2][=Branch1][Branch2].[C][C][C][C][C][C][C][=C][C][=C][Branch2][O][N][C][Branch1][P][C][=C][C][=C][Branch1][#Branch1][C][C][C][C][C][C][C][=C][Ring1][N][C][=C][C][=C][Branch2][Ring2][P][C][=C][Ring1][=Branch1][C][S][C][C][=C][Branch2][Ring1][=Branch2][/C][=C][\C][=Branch1][C][=O][C][=C][C][=C][C][=C][Ring1][=Branch1][C][Ring1][#Branch2][=C][Branch1][Ring1][C][#N][C][#N][S][C][=Ring2][Ring1][Branch1][C][=Ring2][Ring1][Branch2][Ring2][Ring2][O][C][Branch1][P][C][=C][C][=C][Branch1][#Branch1][C][C][C][C][C][C][C][=C][Ring1][N][Branch1][P][C][=C][C][=C][Branch1][#Branch1][C][C][C][C][C][C][C][=C][Ring1][N][C][=C][Ring2][Branch1][#Branch1][S][C][C][=C][Branch2][Ring1][=Branch2][/C][=C][\C][=Branch1][C][=O][C][=C][C][=C][C][=C][Ring1][=Branch1][C][Ring1][#Branch2][=C][Branch1][Ring1][C][#N][C][#N][S][C][Ring2][Ring1][Branch2][=Ring2][Ring1][Branch1][C][=C][Ring2][Branch2][C],{CCCCC(CC)Cc1ccc(-c2c3cc(-c4ccc(-c5sc(-c6ccc([$])s6)c6c5C(=O)c5c(CC(CC)CCCC)sc(CC(CC)CCCC)c5C6=O)s4)sc3c(-c3ccc(CC(CC)CCCC)s3)c3cc([$])sc23)s1}.CCCCCCc1ccc(C2(c3ccc(CCCCCC)cc3)c3cc4c(cc3-c3sc5cc(/C=C6\C(=O)c7ccccc7C6=C(C#N)C#N)sc5c32)C(c2ccc(CCCCCC)cc2)(c2ccc(CCCCCC)cc2)c2c-4sc3cc(/C=C4\C(=O)c5ccccc5C4=C(C#N)C#N)sc23)cc1
PBDTTT-E-T,IEICO,-5.09,-3.48,-5.32,-3.95,1.0,CB,DIO,100.0,PEDOT:PSS,PFN-Br,8.4,8.42,0.82,17.7,58.0,CCCCC(CC)COC(=O)c1cc2c(C)sc(-c3cc4c(-c5ccc(CC(CC)CCCC)s5)c5sc(C)cc5c(-c5ccc(CC(CC)CCCC)s5)c4s3)c2s1.CCCCCCc1ccc(C2(c3ccc(CCCCCC)cc3)c3cc4c(cc3-c3sc(-c5sc(/C=C6\C(=O)c7ccccc7C6=C(C#N)C#N)cc5OCC(CC)CCCC)cc32)C(c2ccc(CCCCCC)cc2)(c2ccc(CCCCCC)cc2)c2cc(-c3sc(/C=C5\C(=O)c6ccccc6C5=C(C#N)C#N)cc3OCC(CC)CCCC)sc2-4)cc1,[C][C][C][C][C][Branch1][Ring1][C][C][C][O][C][=Branch1][C][=O][C][=C][C][=C][Branch1][C][C][S][C][Branch2][=Branch1][Ring2][C][=C][C][=C][Branch2][Ring1][Ring2][C][=C][C][=C][Branch1][O][C][C][Branch1][Ring1][C][C][C][C][C][C][S][Ring1][=N][C][S][C][Branch1][C][C][=C][C][=Ring1][=Branch1][C][Branch2][Ring1][Ring2][C][=C][C][=C][Branch1][O][C][C][Branch1][Ring1][C][C][C][C][C][C][S][Ring1][=N][=C][Ring2][Ring2][Ring2][S][Ring2][Ring2][#Branch1][=C][Ring2][Ring2][=N][S][Ring2][Ring2][S].[C][C][C][C][C][C][C][=C][C][=C][Branch2][=N][N][C][Branch1][P][C][=C][C][=C][Branch1][#Branch1][C][C][C][C][C][C][C][=C][Ring1][N][C][=C][C][=C][Branch2][Branch1][P][C][=C][Ring1][=Branch1][C][S][C][Branch2][Ring2][#C][C][S][C][Branch2][Ring1][=Branch2][/C][=C][\C][=Branch1][C][=O][C][=C][C][=C][C][=C][Ring1][=Branch1][C][Ring1][#Branch2][=C][Branch1][Ring1][C][#N][C][#N][=C][C][=Ring2][Ring1][Branch1][O][C][C][Branch1][Ring1][C][C][C][C][C][C][=C][C][=Ring2][Ring2][Ring1][Ring2][Branch1][=Branch1][C][Branch1][P][C][=C][C][=C][Branch1][#Branch1][C][C][C][C][C][C][C][=C][Ring1][N][Branch1][P][C][=C][C][=C][Branch1][#Branch1][C][C][C][C][C][C][C][=C][Ring1][N][C][C][=C][Branch2][Ring2][#C][C][S][C][Branch2][Ring1][=Branch2][/C][=C][\C][=Branch1][C][=O][C][=C][C][=C][C][=C][Ring1][=Branch1][C][Ring1][#Branch2][=C][Branch1][Ring1][C][#N][C][#N][=C][C][=Ring2][Ring1][Branch1][O][C][C][Branch1][Ring1][C][C][C][C][C][C][S][C][=Ring2][Ring2][Ring1][Ring2][Branch2][Ring1][C][=C][Ring2][=Branch2][Branch2],{CCCCC(CC)COC(=O)c1cc2c([$])sc(-c3cc4c(-c5ccc(CC(CC)CCCC)s5)c5sc([$])cc5c(-c5ccc(CC(CC)CCCC)s5)c4s3)c2s1}.CCCCCCc1ccc(C2(c3ccc(CCCCCC)cc3)c3cc4c(cc3-c3sc(-c5sc(/C=C6\C(=O)c7ccccc7C6=C(C#N)C#N)cc5OCC(CC)CCCC)cc32)C(c2ccc(CCCCCC)cc2)(c2ccc(CCCCCC)cc2)c2cc(-c3sc(/C=C5\C(=O)c6ccccc6C5=C(C#N)C#N)cc3OCC(CC)CCCC)sc2-4)cc1