Donor,Acceptor,HOMO_D_eV,LUMO_D_eV,HOMO_A_eV,LUMO_A_eV,D_A_ratio_m_m,solvent,solvent_additive,annealing_temperature,hole_contact_layer,electron_contact_layer,PCE_percent,calc_PCE_percent,Voc_V,Jsc_mA_cm_pow_neg2,FF_percent,DA_SMILES,DA_SELFIES,DA_BigSMILES
P3HT,BTA103,-5.057777777777777,-2.989444444444445,-5.21,-3.18,0.5,CF,_,120.0,PEDOT:PSS,Ca,5.31,5.31,0.94,8.56,66.0,CCCCCCc1cc(-c2sc(-c3sc(-c4sc(C)cc4CCCCCC)cc3CCCCCC)cc2CCCCCC)sc1C.CCCCCCCCn1nc2c(/C=c3/sc(=C(C#N)C#N)n(CC)c3=O)c(OC)c(OC)c(-c3cc4c(s3)-c3cc5c(cc3C4(c3ccc(CCCCCC)cc3)c3ccc(CCCCCC)cc3)-c3sc(-c4c(OC)c(OC)c(/C=c6/sc(=C(C#N)C#N)n(CC)c6=O)c6nn(CCCCCCCC)nc46)cc3C5(c3ccc(CCCCCC)cc3)c3ccc(CCCCCC)cc3)c2n1,[C][C][C][C][C][C][C][C][=C][Branch2][Ring2][P][C][S][C][Branch2][Ring1][S][C][S][C][Branch1][P][C][S][C][Branch1][C][C][=C][C][=Ring1][=Branch1][C][C][C][C][C][C][=C][C][=Ring1][P][C][C][C][C][C][C][=C][C][=Ring2][Ring1][N][C][C][C][C][C][C][S][C][=Ring2][Ring2][#Branch1][C].[C][C][C][C][C][C][C][C][N][N][=C][C][Branch2][Ring1][#Branch1][/C][=C][/S][C][=Branch1][Branch2][=C][Branch1][Ring1][C][#N][C][#N][N][Branch1][Ring1][C][C][C][Ring1][N][=O][=C][Branch1][Ring1][O][C][C][Branch1][Ring1][O][C][=C][Branch2][N][Ring2][C][=C][C][=C][Branch1][Ring2][S][Ring1][Branch1][C][=C][C][=C][Branch2][Ring2][#Branch2][C][=C][Ring1][=Branch1][C][Ring1][#Branch2][Branch1][P][C][=C][C][=C][Branch1][#Branch1][C][C][C][C][C][C][C][=C][Ring1][N][C][=C][C][=C][Branch1][#Branch1][C][C][C][C][C][C][C][=C][Ring1][N][C][S][C][Branch2][Branch1][#Branch2][C][=C][Branch1][Ring1][O][C][C][Branch1][Ring1][O][C][=C][Branch2][Ring1][#Branch1][/C][=C][/S][C][=Branch1][Branch2][=C][Branch1][Ring1][C][#N][C][#N][N][Branch1][Ring1][C][C][C][Ring1][N][=O][C][=N][N][Branch1][=Branch2][C][C][C][C][C][C][C][C][N][=C][Ring2][Ring2][Ring1][Ring1][=N][=C][C][=Ring2][Ring2][Branch2][C][Ring2][=Branch1][=Branch1][Branch1][P][C][=C][C][=C][Branch1][#Branch1][C][C][C][C][C][C][C][=C][Ring1][N][C][=C][C][=C][Branch1][#Branch1][C][C][C][C][C][C][C][=C][Ring1][N][C][Ring2][=Branch2][=N][=N][Ring2][=Branch2][S],{CCCCCCc1cc(-c2sc(-c3sc(-c4sc([$])cc4CCCCCC)cc3CCCCCC)cc2CCCCCC)sc1[$]}.CCCCCCCCn1nc2c(/C=c3/sc(=C(C#N)C#N)n(CC)c3=O)c(OC)c(OC)c(-c3cc4c(s3)-c3cc5c(cc3C4(c3ccc(CCCCCC)cc3)c3ccc(CCCCCC)cc3)-c3sc(-c4c(OC)c(OC)c(/C=c6/sc(=C(C#N)C#N)n(CC)c6=O)c6nn(CCCCCCCC)nc46)cc3C5(c3ccc(CCCCCC)cc3)c3ccc(CCCCCC)cc3)c2n1
PTB7-Th,6TIC,-5.204782608695651,-3.5391891891891896,-5.33,-3.885,0.667,CB,DIO,150.0,MoOx,ZnO,11.07,11.06,0.831,20.11,66.16,CCCCC(CC)COC(=O)c1sc2c(-c3cc4c(-c5ccc(CC(CC)CCCC)s5)c5sc(C)cc5c(-c5ccc(CC(CC)CCCC)s5)c4s3)sc(C)c2c1F.CCCCCCc1ccc(C2(c3ccc(CCCCCC)cc3)c3c(sc4cc(/C=C5\C(=O)c6ccccc6C5=C(C#N)C#N)sc34)-c3sc4c5c(sc4c32)-c2sc3cc(/C=C4\C(=O)c6ccccc6C4=C(C#N)C#N)sc3c2C5(c2ccc(CCCCCC)cc2)c2ccc(CCCCCC)cc2)cc1,[C][C][C][C][C][Branch1][Ring1][C][C][C][O][C][=Branch1][C][=O][C][S][C][=C][Branch2][=Branch1][Ring2][C][=C][C][=C][Branch2][Ring1][Ring2][C][=C][C][=C][Branch1][O][C][C][Branch1][Ring1][C][C][C][C][C][C][S][Ring1][=N][C][S][C][Branch1][C][C][=C][C][=Ring1][=Branch1][C][Branch2][Ring1][Ring2][C][=C][C][=C][Branch1][O][C][C][Branch1][Ring1][C][C][C][C][C][C][S][Ring1][=N][=C][Ring2][Ring2][Ring2][S][Ring2][Ring2][#Branch1][S][C][Branch1][C][C][=C][Ring2][Ring2][=N][C][=Ring2][Ring2][S][F].[C][C][C][C][C][C][C][=C][C][=C][Branch2][O][S][C][Branch1][P][C][=C][C][=C][Branch1][#Branch1][C][C][C][C][C][C][C][=C][Ring1][N][C][=C][Branch2][Ring2][Branch2][S][C][C][=C][Branch2][Ring1][=Branch2][/C][=C][\C][=Branch1][C][=O][C][=C][C][=C][C][=C][Ring1][=Branch1][C][Ring1][#Branch2][=C][Branch1][Ring1][C][#N][C][#N][S][C][Ring2][Ring1][Branch2][=Ring2][Ring1][Branch1][C][S][C][C][=C][Branch1][O][S][C][=Ring1][Branch1][C][=Ring1][Branch2][Ring2][Ring2][=N][C][S][C][C][=C][Branch2][Ring1][=Branch2][/C][=C][\C][=Branch1][C][=O][C][=C][C][=C][C][=C][Ring1][=Branch1][C][Ring1][#Branch2][=C][Branch1][Ring1][C][#N][C][#N][S][C][=Ring2][Ring1][Branch1][C][=Ring2][Ring1][Branch2][C][Ring2][Ring1][=C][Branch1][P][C][=C][C][=C][Branch1][#Branch1][C][C][C][C][C][C][C][=C][Ring1][N][C][=C][C][=C][Branch1][#Branch1][C][C][C][C][C][C][C][=C][Ring1][N][C][=C][Ring2][Branch2][Ring2],{CCCCC(CC)COC(=O)c1sc2c(-c3cc4c(-c5ccc(CC(CC)CCCC)s5)c5sc([$])cc5c(-c5ccc(CC(CC)CCCC)s5)c4s3)sc([$])c2c1F}.CCCCCCc1ccc(C2(c3ccc(CCCCCC)cc3)c3c(sc4cc(/C=C5\C(=O)c6ccccc6C5=C(C#N)C#N)sc34)-c3sc4c5c(sc4c32)-c2sc3cc(/C=C4\C(=O)c6ccccc6C4=C(C#N)C#N)sc3c2C5(c2ccc(CCCCCC)cc2)c2ccc(CCCCCC)cc2)cc1
PTB7-Th,COi8DFIC,-5.204782608695651,-3.5391891891891896,-5.5,-3.88,1.0,CB,DIO,25.0,MoOx,ZnO,12.16,12.11,0.68,26.12,68.2,CCCCC(CC)COC(=O)c1sc2c(-c3cc4c(-c5ccc(CC(CC)CCCC)s5)c5sc(C)cc5c(-c5ccc(CC(CC)CCCC)s5)c4s3)sc(C)c2c1F.CCCCCCc1ccc(C2(c3ccc(CCCCCC)cc3)Oc3c(sc4c5c(sc34)-c3sc4cc(/C=C6\C(=O)c7cc(F)c(F)cc7C6=C(C#N)C#N)sc4c3C(c3ccc(CCCCCC)cc3)(c3ccc(CCCCCC)cc3)O5)-c3sc4cc(/C=C5\C(=O)c6cc(F)c(F)cc6C5=C(C#N)C#N)sc4c32)cc1,[C][C][C][C][C][Branch1][Ring1][C][C][C][O][C][=Branch1][C][=O][C][S][C][=C][Branch2][=Branch1][Ring2][C][=C][C][=C][Branch2][Ring1][Ring2][C][=C][C][=C][Branch1][O][C][C][Branch1][Ring1][C][C][C][C][C][C][S][Ring1][=N][C][S][C][Branch1][C][C][=C][C][=Ring1][=Branch1][C][Branch2][Ring1][Ring2][C][=C][C][=C][Branch1][O][C][C][Branch1][Ring1][C][C][C][C][C][C][S][Ring1][=N][=C][Ring2][Ring2][Ring2][S][Ring2][Ring2][#Branch1][S][C][Branch1][C][C][=C][Ring2][Ring2][=N][C][=Ring2][Ring2][S][F].[C][C][C][C][C][C][C][=C][C][=C][Branch2][N][S][C][Branch1][P][C][=C][C][=C][Branch1][#Branch1][C][C][C][C][C][C][C][=C][Ring1][N][O][C][=C][Branch2][Branch2][Branch1][S][C][C][=C][Branch1][#Branch1][S][C][Ring1][Branch2][=Ring1][Branch1][C][S][C][C][=C][Branch2][Ring1][#C][/C][=C][\C][=Branch1][C][=O][C][=C][C][Branch1][C][F][=C][Branch1][C][F][C][=C][Ring1][Branch2][C][Ring1][N][=C][Branch1][Ring1][C][#N][C][#N][S][C][=Ring2][Ring1][#Branch1][C][=Ring2][Ring1][#Branch2][C][Branch1][P][C][=C][C][=C][Branch1][#Branch1][C][C][C][C][C][C][C][=C][Ring1][N][Branch1][P][C][=C][C][=C][Branch1][#Branch1][C][C][C][C][C][C][C][=C][Ring1][N][O][Ring2][Branch1][Branch2][C][S][C][C][=C][Branch2][Ring1][#C][/C][=C][\C][=Branch1][C][=O][C][=C][C][Branch1][C][F][=C][Branch1][C][F][C][=C][Ring1][Branch2][C][Ring1][N][=C][Branch1][Ring1][C][#N][C][#N][S][C][=Ring2][Ring1][#Branch1][C][=Ring2][Ring1][#Branch2][Ring2][Branch2][Ring2][C][=C][Ring2][Branch2][#Branch2],{CCCCC(CC)COC(=O)c1sc2c(-c3cc4c(-c5ccc(CC(CC)CCCC)s5)c5sc([$])cc5c(-c5ccc(CC(CC)CCCC)s5)c4s3)sc([$])c2c1F}.CCCCCCc1ccc(C2(c3ccc(CCCCCC)cc3)Oc3c(sc4c5c(sc34)-c3sc4cc(/C=C6\C(=O)c7cc(F)c(F)cc7C6=C(C#N)C#N)sc4c3C(c3ccc(CCCCCC)cc3)(c3ccc(CCCCCC)cc3)O5)-c3sc4cc(/C=C5\C(=O)c6cc(F)c(F)cc6C5=C(C#N)C#N)sc4c32)cc1
PTB7-Th,IDT-2BR,-5.204782608695651,-3.5391891891891896,-5.52,-3.69,1.0,o-DCB:CF (4:1),CN,25.0,PEDOT:PSS,Ca,7.7,8.32,0.99,14.0,60.0,CCCCC(CC)COC(=O)c1sc2c(-c3cc4c(-c5ccc(CC(CC)CCCC)s5)c5sc(C)cc5c(-c5ccc(CC(CC)CCCC)s5)c4s3)sc(C)c2c1F.CCCCCCc1ccc(C2(c3ccc(CCCCCC)cc3)c3cc4c(cc3-c3sc(-c5ccc(/C=C6\SC(=S)N(CC)C6=O)c6nsnc56)cc32)C(c2ccc(CCCCCC)cc2)(c2ccc(CCCCCC)cc2)c2cc(-c3ccc(/C=C5\SC(=S)N(CC)C5=O)c5nsnc35)sc2-4)cc1,[C][C][C][C][C][Branch1][Ring1][C][C][C][O][C][=Branch1][C][=O][C][S][C][=C][Branch2][=Branch1][Ring2][C][=C][C][=C][Branch2][Ring1][Ring2][C][=C][C][=C][Branch1][O][C][C][Branch1][Ring1][C][C][C][C][C][C][S][Ring1][=N][C][S][C][Branch1][C][C][=C][C][=Ring1][=Branch1][C][Branch2][Ring1][Ring2][C][=C][C][=C][Branch1][O][C][C][Branch1][Ring1][C][C][C][C][C][C][S][Ring1][=N][=C][Ring2][Ring2][Ring2][S][Ring2][Ring2][#Branch1][S][C][Branch1][C][C][=C][Ring2][Ring2][=N][C][=Ring2][Ring2][S][F].[C][C][C][C][C][C][C][=C][C][=C][Branch2][O][S][C][Branch1][P][C][=C][C][=C][Branch1][#Branch1][C][C][C][C][C][C][C][=C][Ring1][N][C][=C][C][=C][Branch2][Branch1][Ring1][C][=C][Ring1][=Branch1][C][S][C][Branch2][Ring1][P][C][=C][C][=C][Branch1][P][/C][=C][\S][C][=Branch1][C][=S][N][Branch1][Ring1][C][C][C][Ring1][Branch2][=O][C][=N][S][N][=C][Ring2][Ring1][Ring1][Ring1][Branch1][=C][C][=Ring2][Ring1][Branch2][Ring2][Ring2][O][C][Branch1][P][C][=C][C][=C][Branch1][#Branch1][C][C][C][C][C][C][C][=C][Ring1][N][Branch1][P][C][=C][C][=C][Branch1][#Branch1][C][C][C][C][C][C][C][=C][Ring1][N][C][C][=C][Branch2][Ring1][P][C][=C][C][=C][Branch1][P][/C][=C][\S][C][=Branch1][C][=S][N][Branch1][Ring1][C][C][C][Ring1][Branch2][=O][C][=N][S][N][=C][Ring2][Ring1][Ring1][Ring1][Branch1][S][C][=Ring2][Ring1][Branch2][Ring2][=Branch1][=N][C][=C][Ring2][Branch2][C],{CCCCC(CC)COC(=O)c1sc2c(-c3cc4c(-c5ccc(CC(CC)CCCC)s5)c5sc([$])cc5c(-c5ccc(CC(CC)CCCC)s5)c4s3)sc([$])c2c1F}.CCCCCCc1ccc(C2(c3ccc(CCCCCC)cc3)c3cc4c(cc3-c3sc(-c5ccc(/C=C6\SC(=S)N(CC)C6=O)c6nsnc56)cc32)C(c2ccc(CCCCCC)cc2)(c2ccc(CCCCCC)cc2)c2cc(-c3ccc(/C=C5\SC(=S)N(CC)C5=O)c5nsnc35)sc2-4)cc1
PTB7-Th,IDT-2BR1,-5.204782608695651,-3.5391891891891896,-5.37,-3.67,1.0,o-DCB:CF (4:1),CN,25.0,PEDOT:PSS,Ca,8.7,8.66,0.95,15.2,60.0,CCCCC(CC)COC(=O)c1sc2c(-c3cc4c(-c5ccc(CC(CC)CCCC)s5)c5sc(C)cc5c(-c5ccc(CC(CC)CCCC)s5)c4s3)sc(C)c2c1F.CCCCCCC1(CCCCCC)c2cc3c(cc2-c2sc(-c4ccc(/C=C5\SC(=S)N(CC)C5=O)c5nsnc45)cc21)C(CCCCCC)(CCCCCC)c1cc(-c2ccc(/C=C4\SC(=S)N(CC)C4=O)c4nsnc24)sc1-3,[C][C][C][C][C][Branch1][Ring1][C][C][C][O][C][=Branch1][C][=O][C][S][C][=C][Branch2][=Branch1][Ring2][C][=C][C][=C][Branch2][Ring1][Ring2][C][=C][C][=C][Branch1][O][C][C][Branch1][Ring1][C][C][C][C][C][C][S][Ring1][=N][C][S][C][Branch1][C][C][=C][C][=Ring1][=Branch1][C][Branch2][Ring1][Ring2][C][=C][C][=C][Branch1][O][C][C][Branch1][Ring1][C][C][C][C][C][C][S][Ring1][=N][=C][Ring2][Ring2][Ring2][S][Ring2][Ring2][#Branch1][S][C][Branch1][C][C][=C][Ring2][Ring2][=N][C][=Ring2][Ring2][S][F].[C][C][C][C][C][C][C][Branch1][#Branch1][C][C][C][C][C][C][C][=C][C][=C][Branch2][Branch1][Ring1][C][=C][Ring1][=Branch1][C][S][C][Branch2][Ring1][P][C][=C][C][=C][Branch1][P][/C][=C][\S][C][=Branch1][C][=S][N][Branch1][Ring1][C][C][C][Ring1][Branch2][=O][C][=N][S][N][=C][Ring2][Ring1][Ring1][Ring1][Branch1][=C][C][=Ring2][Ring1][Branch2][Ring2][Ring2][Branch1][C][Branch1][#Branch1][C][C][C][C][C][C][Branch1][#Branch1][C][C][C][C][C][C][C][C][=C][Branch2][Ring1][P][C][=C][C][=C][Branch1][P][/C][=C][\S][C][=Branch1][C][=S][N][Branch1][Ring1][C][C][C][Ring1][Branch2][=O][C][=N][S][N][=C][Ring2][Ring1][Ring1][Ring1][Branch1][S][C][=Ring2][Ring1][Branch2][Ring2][Branch1][P],{CCCCC(CC)COC(=O)c1sc2c(-c3cc4c(-c5ccc(CC(CC)CCCC)s5)c5sc([$])cc5c(-c5ccc(CC(CC)CCCC)s5)c4s3)sc([$])c2c1F}.CCCCCCC1(CCCCCC)c2cc3c(cc2-c2sc(-c4ccc(/C=C5\SC(=S)N(CC)C5=O)c5nsnc45)cc21)C(CCCCCC)(CCCCCC)c1cc(-c2ccc(/C=C4\SC(=S)N(CC)C4=O)c4nsnc24)sc1-3
PTB7-Th,ATT-2,-5.204782608695651,-3.5391891891891896,-5.5,-3.9,0.556,CB,CN,25.0,MoOx,ZnO,9.58,9.54,0.73,20.75,63.0,CCCCC(CC)COC(=O)c1sc2c(-c3cc4c(-c5ccc(CC(CC)CCCC)s5)c5sc(C)cc5c(-c5ccc(CC(CC)CCCC)s5)c4s3)sc(C)c2c1F.CCCCCCCCOC(=O)c1cc2c(/C=C3\C(=O)c4ccccc4C3=C(C#N)C#N)sc(-c3cc4c(s3)-c3cc5c(cc3C4(c3ccc(CCCCCC)cc3)c3ccc(CCCCCC)cc3)-c3sc(-c4sc(/C=C6\C(=O)c7ccccc7C6=C(C#N)C#N)c6cc(C(=O)OCCCCCCCC)sc46)cc3C5(c3ccc(CCCCCC)cc3)c3ccc(CCCCCC)cc3)c2s1,[C][C][C][C][C][Branch1][Ring1][C][C][C][O][C][=Branch1][C][=O][C][S][C][=C][Branch2][=Branch1][Ring2][C][=C][C][=C][Branch2][Ring1][Ring2][C][=C][C][=C][Branch1][O][C][C][Branch1][Ring1][C][C][C][C][C][C][S][Ring1][=N][C][S][C][Branch1][C][C][=C][C][=Ring1][=Branch1][C][Branch2][Ring1][Ring2][C][=C][C][=C][Branch1][O][C][C][Branch1][Ring1][C][C][C][C][C][C][S][Ring1][=N][=C][Ring2][Ring2][Ring2][S][Ring2][Ring2][#Branch1][S][C][Branch1][C][C][=C][Ring2][Ring2][=N][C][=Ring2][Ring2][S][F].[C][C][C][C][C][C][C][C][O][C][=Branch1][C][=O][C][=C][C][=C][Branch2][Ring1][=Branch2][/C][=C][\C][=Branch1][C][=O][C][=C][C][=C][C][=C][Ring1][=Branch1][C][Ring1][#Branch2][=C][Branch1][Ring1][C][#N][C][#N][S][C][Branch2][N][C][C][=C][C][=C][Branch1][Ring2][S][Ring1][Branch1][C][=C][C][=C][Branch2][Ring2][#Branch2][C][=C][Ring1][=Branch1][C][Ring1][#Branch2][Branch1][P][C][=C][C][=C][Branch1][#Branch1][C][C][C][C][C][C][C][=C][Ring1][N][C][=C][C][=C][Branch1][#Branch1][C][C][C][C][C][C][C][=C][Ring1][N][C][S][C][Branch2][Branch1][Branch2][C][S][C][Branch2][Ring1][=Branch2][/C][=C][\C][=Branch1][C][=O][C][=C][C][=C][C][=C][Ring1][=Branch1][C][Ring1][#Branch2][=C][Branch1][Ring1][C][#N][C][#N][=C][C][=C][Branch1][=C][C][=Branch1][C][=O][O][C][C][C][C][C][C][C][C][S][C][=Ring2][Ring2][Ring1][Ring1][S][=C][C][=Ring2][Ring2][Branch2][C][Ring2][=Branch1][=Branch1][Branch1][P][C][=C][C][=C][Branch1][#Branch1][C][C][C][C][C][C][C][=C][Ring1][N][C][=C][C][=C][Branch1][#Branch1][C][C][C][C][C][C][C][=C][Ring1][N][=C][Ring2][=Branch2][#Branch2][S][Ring2][=Branch2][=N],{CCCCC(CC)COC(=O)c1sc2c(-c3cc4c(-c5ccc(CC(CC)CCCC)s5)c5sc([$])cc5c(-c5ccc(CC(CC)CCCC)s5)c4s3)sc([$])c2c1F}.CCCCCCCCOC(=O)c1cc2c(/C=C3\C(=O)c4ccccc4C3=C(C#N)C#N)sc(-c3cc4c(s3)-c3cc5c(cc3C4(c3ccc(CCCCCC)cc3)c3ccc(CCCCCC)cc3)-c3sc(-c4sc(/C=C6\C(=O)c7ccccc7C6=C(C#N)C#N)c6cc(C(=O)OCCCCCCCC)sc46)cc3C5(c3ccc(CCCCCC)cc3)c3ccc(CCCCCC)cc3)c2s1
PTB7-Th,T2,-5.204782608695651,-3.5391891891891896,-5.34,-3.96,0.556,CB,_,25.0,MoOx,ZnO,10.1,10.02,0.67,22.65,66.0,CCCCC(CC)COC(=O)c1sc2c(-c3cc4c(-c5ccc(CC(CC)CCCC)s5)c5sc(C)cc5c(-c5ccc(CC(CC)CCCC)s5)c4s3)sc(C)c2c1F.CCCCCCc1ccc(C2(c3ccc(CCCCCC)cc3)c3cc4c(cc3-c3sc(-c5sc(/C=C6\C(=O)c7cc(F)ccc7C6=C(C#N)C#N)c6c(F)c(C(=O)OCC(CC)CCCC)sc56)cc32)C(c2ccc(CCCCCC)cc2)(c2ccc(CCCCCC)cc2)c2cc(-c3sc(/C=C5\C(=O)c6cc(F)ccc6C5=C(C#N)C#N)c5c(F)c(C(=O)OCC(CC)CCCC)sc35)sc2-4)cc1,[C][C][C][C][C][Branch1][Ring1][C][C][C][O][C][=Branch1][C][=O][C][S][C][=C][Branch2][=Branch1][Ring2][C][=C][C][=C][Branch2][Ring1][Ring2][C][=C][C][=C][Branch1][O][C][C][Branch1][Ring1][C][C][C][C][C][C][S][Ring1][=N][C][S][C][Branch1][C][C][=C][C][=Ring1][=Branch1][C][Branch2][Ring1][Ring2][C][=C][C][=C][Branch1][O][C][C][Branch1][Ring1][C][C][C][C][C][C][S][Ring1][=N][=C][Ring2][Ring2][Ring2][S][Ring2][Ring2][#Branch1][S][C][Branch1][C][C][=C][Ring2][Ring2][=N][C][=Ring2][Ring2][S][F].[C][C][C][C][C][C][C][=C][C][=C][Branch2][#C][=C][C][Branch1][P][C][=C][C][=C][Branch1][#Branch1][C][C][C][C][C][C][C][=C][Ring1][N][C][=C][C][=C][Branch2][#Branch1][C][C][=C][Ring1][=Branch1][C][S][C][Branch2][Branch1][S][C][S][C][Branch2][Ring1][N][/C][=C][\C][=Branch1][C][=O][C][=C][C][Branch1][C][F][=C][C][=C][Ring1][#Branch1][C][Ring1][O][=C][Branch1][Ring1][C][#N][C][#N][=C][C][Branch1][C][F][=C][Branch1][S][C][=Branch1][C][=O][O][C][C][Branch1][Ring1][C][C][C][C][C][C][S][C][=Ring2][Ring2][Branch1][Ring1][P][=C][C][=Ring2][Ring2][#Branch2][Ring2][Branch1][=N][C][Branch1][P][C][=C][C][=C][Branch1][#Branch1][C][C][C][C][C][C][C][=C][Ring1][N][Branch1][P][C][=C][C][=C][Branch1][#Branch1][C][C][C][C][C][C][C][=C][Ring1][N][C][C][=C][Branch2][Branch1][S][C][S][C][Branch2][Ring1][N][/C][=C][\C][=Branch1][C][=O][C][=C][C][Branch1][C][F][=C][C][=C][Ring1][#Branch1][C][Ring1][O][=C][Branch1][Ring1][C][#N][C][#N][=C][C][Branch1][C][F][=C][Branch1][S][C][=Branch1][C][=O][O][C][C][Branch1][Ring1][C][C][C][C][C][C][S][C][=Ring2][Ring2][Branch1][Ring1][P][S][C][=Ring2][Ring2][#Branch2][Ring2][Branch2][P][C][=C][Ring2][#Branch2][=Branch1],{CCCCC(CC)COC(=O)c1sc2c(-c3cc4c(-c5ccc(CC(CC)CCCC)s5)c5sc([$])cc5c(-c5ccc(CC(CC)CCCC)s5)c4s3)sc([$])c2c1F}.CCCCCCc1ccc(C2(c3ccc(CCCCCC)cc3)c3cc4c(cc3-c3sc(-c5sc(/C=C6\C(=O)c7cc(F)ccc7C6=C(C#N)C#N)c6c(F)c(C(=O)OCC(CC)CCCC)sc56)cc32)C(c2ccc(CCCCCC)cc2)(c2ccc(CCCCCC)cc2)c2cc(-c3sc(/C=C5\C(=O)c6cc(F)ccc6C5=C(C#N)C#N)c5c(F)c(C(=O)OCC(CC)CCCC)sc35)sc2-4)cc1
PTB7-Th,T3,-5.204782608695651,-3.5391891891891896,-5.31,-4.0,0.556,CB,_,25.0,MoOx,ZnO,9.43,9.39,0.61,22.0,70.0,CCCCC(CC)COC(=O)c1sc2c(-c3cc4c(-c5ccc(CC(CC)CCCC)s5)c5sc(C)cc5c(-c5ccc(CC(CC)CCCC)s5)c4s3)sc(C)c2c1F.CCCCCCc1ccc(C2(c3ccc(CCCCCC)cc3)c3cc4c(cc3-c3sc(-c5sc(/C=C6\C(=O)c7cc(F)c(F)cc7C6=C(C#N)C#N)c6c(F)c(C(=O)OCC(CC)CCCC)sc56)cc32)C(c2ccc(CCCCCC)cc2)(c2ccc(CCCCCC)cc2)c2cc(-c3sc(/C=C5\C(=O)c6cc(F)c(F)cc6C5=C(C#N)C#N)c5c(F)c(C(=O)OCC(CC)CCCC)sc35)sc2-4)cc1,[C][C][C][C][C][Branch1][Ring1][C][C][C][O][C][=Branch1][C][=O][C][S][C][=C][Branch2][=Branch1][Ring2][C][=C][C][=C][Branch2][Ring1][Ring2][C][=C][C][=C][Branch1][O][C][C][Branch1][Ring1][C][C][C][C][C][C][S][Ring1][=N][C][S][C][Branch1][C][C][=C][C][=Ring1][=Branch1][C][Branch2][Ring1][Ring2][C][=C][C][=C][Branch1][O][C][C][Branch1][Ring1][C][C][C][C][C][C][S][Ring1][=N][=C][Ring2][Ring2][Ring2][S][Ring2][Ring2][#Branch1][S][C][Branch1][C][C][=C][Ring2][Ring2][=N][C][=Ring2][Ring2][S][F].[C][C][C][C][C][C][C][=C][C][=C][Branch2][S][Ring2][C][Branch1][P][C][=C][C][=C][Branch1][#Branch1][C][C][C][C][C][C][C][=C][Ring1][N][C][=C][C][=C][Branch2][#Branch1][Branch1][C][=C][Ring1][=Branch1][C][S][C][Branch2][=Branch1][Ring1][C][S][C][Branch2][Ring1][#C][/C][=C][\C][=Branch1][C][=O][C][=C][C][Branch1][C][F][=C][Branch1][C][F][C][=C][Ring1][Branch2][C][Ring1][N][=C][Branch1][Ring1][C][#N][C][#N][=C][C][Branch1][C][F][=C][Branch1][S][C][=Branch1][C][=O][O][C][C][Branch1][Ring1][C][C][C][C][C][C][S][C][=Ring2][Ring2][=Branch1][Ring1][P][=C][C][=Ring2][Ring2][O][Ring2][Branch1][=C][C][Branch1][P][C][=C][C][=C][Branch1][#Branch1][C][C][C][C][C][C][C][=C][Ring1][N][Branch1][P][C][=C][C][=C][Branch1][#Branch1][C][C][C][C][C][C][C][=C][Ring1][N][C][C][=C][Branch2][=Branch1][Ring1][C][S][C][Branch2][Ring1][#C][/C][=C][\C][=Branch1][C][=O][C][=C][C][Branch1][C][F][=C][Branch1][C][F][C][=C][Ring1][Branch2][C][Ring1][N][=C][Branch1][Ring1][C][#N][C][#N][=C][C][Branch1][C][F][=C][Branch1][S][C][=Branch1][C][=O][O][C][C][Branch1][Ring1][C][C][C][C][C][C][S][C][=Ring2][Ring2][=Branch1][Ring1][P][S][C][=Ring2][Ring2][O][Ring2][=Branch2][Ring1][C][=C][Ring2][#Branch2][Branch2],{CCCCC(CC)COC(=O)c1sc2c(-c3cc4c(-c5ccc(CC(CC)CCCC)s5)c5sc([$])cc5c(-c5ccc(CC(CC)CCCC)s5)c4s3)sc([$])c2c1F}.CCCCCCc1ccc(C2(c3ccc(CCCCCC)cc3)c3cc4c(cc3-c3sc(-c5sc(/C=C6\C(=O)c7cc(F)c(F)cc7C6=C(C#N)C#N)c6c(F)c(C(=O)OCC(CC)CCCC)sc56)cc32)C(c2ccc(CCCCCC)cc2)(c2ccc(CCCCCC)cc2)c2cc(-c3sc(/C=C5\C(=O)c6cc(F)c(F)cc6C5=C(C#N)C#N)c5c(F)c(C(=O)OCC(CC)CCCC)sc35)sc2-4)cc1