Donor,Acceptor,HOMO_D_eV,LUMO_D_eV,Eg_D_eV,Ehl_D_eV,HOMO_A_eV,LUMO_A_eV,Ehl_A_eV,Eg_A_eV,D_A_ratio_m_m,solvent,solvent_additive,annealing_temperature,hole_contact_layer,electron_contact_layer,PCE_percent,calc_PCE_percent,Voc_V,Jsc_mA_cm_pow_neg2,FF_percent,DA_SMILES,DA_SELFIES,DA_BigSMILES
P3HT,FBR,-5.057777777777777,-2.989444444444445,1.9,-2.068333333333332,-5.786666666666666,-3.673333333333333,-2.1133333333333333,2.1166666666666667,1:1,CF:DCB (80:20),_,110.0,MoOx,ZnO,4.11,4.10697,0.82,7.95,63.0,CCCCCCc1cc(-c2sc(-c3sc(-c4sc(C)cc4CCCCCC)cc3CCCCCC)cc2CCCCCC)sc1C.CCN1C(=O)/C(=C/c2ccc(-c3ccc4c(c3)C([Ti])([Ti])c3cc(-c5ccc(/C=C6\SC(=S)N(CC)C6=O)c6nsnc56)ccc3-4)c3nsnc23)SC1=S,[C][C][C][C][C][C][C][C][=C][Branch2][Ring2][P][C][S][C][Branch2][Ring1][S][C][S][C][Branch1][P][C][S][C][Branch1][C][C][=C][C][=Ring1][=Branch1][C][C][C][C][C][C][=C][C][=Ring1][P][C][C][C][C][C][C][=C][C][=Ring2][Ring1][N][C][C][C][C][C][C][S][C][=Ring2][Ring2][#Branch1][C].[C][C][N][C][=Branch1][C][=O][/C][=Branch2][#Branch1][Ring1][=C][/C][=C][C][=C][Branch2][Branch1][P][C][=C][C][=C][C][=Branch1][Ring2][=C][Ring1][=Branch1][C][Branch1][C][Ti][Branch1][C][Ti][C][=C][C][Branch2][Ring1][P][C][=C][C][=C][Branch1][P][/C][=C][\S][C][=Branch1][C][=S][N][Branch1][Ring1][C][C][C][Ring1][Branch2][=O][C][=N][S][N][=C][Ring2][Ring1][Ring1][Ring1][Branch1][=C][C][=C][Ring2][Ring1][=Branch2][Ring2][Ring1][#C][C][=N][S][N][=C][Ring2][Ring2][O][Ring1][Branch1][S][C][Ring2][Branch1][C][=S],{CCCCCCc1cc(-c2sc(-c3sc(-c4sc([$])cc4CCCCCC)cc3CCCCCC)cc2CCCCCC)sc1[$]}.CCN1C(=O)/C(=C/c2ccc(-c3ccc4c(c3)C([Ti])([Ti])c3cc(-c5ccc(/C=C6\SC(=S)N(CC)C6=O)c6nsnc56)ccc3-4)c3nsnc23)SC1=S
P3HT,NAI-FN-NAI(BO),-5.057777777777777,-2.989444444444445,1.9,-2.068333333333332,-6.07,-3.96,-2.1100000000000003,2.13,1:1,CB,_,25.0,PEDOT:PSS,LiF,3.8,3.9339,0.9,9.3,47.0,CCCCCCc1cc(-c2sc(-c3sc(-c4sc(C)cc4CCCCCC)cc3CCCCCC)cc2CCCCCC)sc1C.O=C1c2cc(-c3ccc(-c4ccc5c6c(cccc46)C(=O)N([Co])C5=O)s3)ccc2-c2ccc(-c3ccc(-c4ccc5c6c(cccc46)C(=O)N([Co])C5=O)s3)cc21,[C][C][C][C][C][C][C][C][=C][Branch2][Ring2][P][C][S][C][Branch2][Ring1][S][C][S][C][Branch1][P][C][S][C][Branch1][C][C][=C][C][=Ring1][=Branch1][C][C][C][C][C][C][=C][C][=Ring1][P][C][C][C][C][C][C][=C][C][=Ring2][Ring1][N][C][C][C][C][C][C][S][C][=Ring2][Ring2][#Branch1][C].[O][=C][C][=C][C][Branch2][Ring2][Branch2][C][=C][C][=C][Branch2][Ring1][=N][C][=C][C][=C][C][=C][Branch1][=Branch2][C][=C][C][=C][Ring1][#Branch2][Ring1][=Branch1][C][=Branch1][C][=O][N][Branch1][C][Co][C][Ring1][N][=O][S][Ring2][Ring1][Branch1][=C][C][=C][Ring2][Ring1][O][C][=C][C][=C][Branch2][Ring2][Branch2][C][=C][C][=C][Branch2][Ring1][=N][C][=C][C][=C][C][=C][Branch1][=Branch2][C][=C][C][=C][Ring1][#Branch2][Ring1][=Branch1][C][=Branch1][C][=O][N][Branch1][C][Co][C][Ring1][N][=O][S][Ring2][Ring1][Branch1][C][=C][Ring2][Ring1][O][Ring2][Branch1][#Branch1],{CCCCCCc1cc(-c2sc(-c3sc(-c4sc([$])cc4CCCCCC)cc3CCCCCC)cc2CCCCCC)sc1[$]}.O=C1c2cc(-c3ccc(-c4ccc5c6c(cccc46)C(=O)N([Co])C5=O)s3)ccc2-c2ccc(-c3ccc(-c4ccc5c6c(cccc46)C(=O)N([Co])C5=O)s3)cc21
P3HT,PI-FN-PI(DT),-5.057777777777777,-2.989444444444445,1.9,-2.068333333333332,-6.02,-3.92,-2.1,2.07,1:1,CB,_,25.0,PEDOT:PSS,LiF,2.2,2.16216,0.91,4.95,48.0,CCCCCCc1cc(-c2sc(-c3sc(-c4sc(C)cc4CCCCCC)cc3CCCCCC)cc2CCCCCC)sc1C.CCCCCCCCCCCCC(CCCCCCCCCC)CN1C(=O)c2ccc(-c3ccc(-c4ccc5c(c4)C(=O)c4cc(-c6ccc(-c7ccc8c(c7)C(=O)N(CC(CCCCCCCCCC)CCCCCCCCCCCC)C8=O)s6)ccc4-5)s3)cc2C1=O,[C][C][C][C][C][C][C][C][=C][Branch2][Ring2][P][C][S][C][Branch2][Ring1][S][C][S][C][Branch1][P][C][S][C][Branch1][C][C][=C][C][=Ring1][=Branch1][C][C][C][C][C][C][=C][C][=Ring1][P][C][C][C][C][C][C][=C][C][=Ring2][Ring1][N][C][C][C][C][C][C][S][C][=Ring2][Ring2][#Branch1][C].[C][C][C][C][C][C][C][C][C][C][C][C][C][Branch1][O][C][C][C][C][C][C][C][C][C][C][C][N][C][=Branch1][C][=O][C][=C][C][=C][Branch2][Branch2][Branch1][C][=C][C][=C][Branch2][#Branch1][#Branch2][C][=C][C][=C][C][=Branch1][Ring2][=C][Ring1][=Branch1][C][=Branch1][C][=O][C][=C][C][Branch2][Branch1][=N][C][=C][C][=C][Branch2][Branch1][C][C][=C][C][=C][C][=Branch1][Ring2][=C][Ring1][=Branch1][C][=Branch1][C][=O][N][Branch2][Ring1][O][C][C][Branch1][O][C][C][C][C][C][C][C][C][C][C][C][C][C][C][C][C][C][C][C][C][C][C][C][Ring2][Ring1][#C][=O][S][Ring2][Ring2][Branch2][=C][C][=C][Ring2][Ring2][=C][Ring2][Branch1][Ring1][S][Ring2][Branch1][O][C][=C][Ring2][Branch1][P][C][Ring2][=Branch1][Branch1][=O],{CCCCCCc1cc(-c2sc(-c3sc(-c4sc([$])cc4CCCCCC)cc3CCCCCC)cc2CCCCCC)sc1[$]}.CCCCCCCCCCCCC(CCCCCCCCCC)CN1C(=O)c2ccc(-c3ccc(-c4ccc5c(c4)C(=O)c4cc(-c6ccc(-c7ccc8c(c7)C(=O)N(CC(CCCCCCCCCC)CCCCCCCCCCCC)C8=O)s6)ccc4-5)s3)cc2C1=O
PTzBI,ITIC,-5.34,-3.46,1.81,-1.88,-5.574285714285715,-3.9143137254901954,-1.659971988795519,1.5857894736842106,1:1,CB,DBE,130.0,PEDOT:PSS,PFN-Br,10.24,10.23797382,0.87,18.29,64.34,Cc1ccc(-c2c3c(c(-c4ccc(-c5cc6c(-c7ccc([Cr])s7)c7sc(C)cc7c(-c7ccc([Cr])s7)c6s5)s4)c4nn([Ti])nc24)C(=O)N([Ti])C3=O)s1.N#CC(C#N)=C1/C(=C/c2cc3sc4c(c3s2)C(c2ccc([Mo])cc2)(c2ccc([Mo])cc2)c2cc3c(cc2-4)C(c2ccc([Mo])cc2)(c2ccc([Mo])cc2)c2c-3sc3cc(/C=C4\C(=O)c5ccccc5C4=C(C#N)C#N)sc23)C(=O)c2ccccc21,[C][C][=C][C][=C][Branch2][#Branch1][#C][C][=C][C][=Branch2][=Branch1][N][=C][Branch2][Branch1][O][C][=C][C][=C][Branch2][Ring2][S][C][=C][C][=C][Branch1][O][C][=C][C][=C][Branch1][C][Cr][S][Ring1][=Branch1][C][S][C][Branch1][C][C][=C][C][=Ring1][=Branch1][C][Branch1][O][C][=C][C][=C][Branch1][C][Cr][S][Ring1][=Branch1][=C][Ring2][Ring1][=Branch1][S][Ring2][Ring1][=Branch2][S][Ring2][Ring1][=C][C][=N][N][Branch1][C][Ti][N][=C][Ring2][Ring2][Branch2][Ring1][=Branch1][C][=Branch1][C][=O][N][Branch1][C][Ti][C][Ring2][Ring2][N][=O][S][Ring2][Branch1][Ring1].[N][#C][C][Branch1][Ring1][C][#N][=C][/C][=Branch2][=Branch2][#C][=C][/C][=C][C][S][C][=C][Branch1][#Branch1][C][=Ring1][Branch1][S][Ring1][Branch2][C][Branch1][N][C][=C][C][=C][Branch1][C][Mo][C][=C][Ring1][#Branch1][Branch1][N][C][=C][C][=C][Branch1][C][Mo][C][=C][Ring1][#Branch1][C][=C][C][=C][Branch1][Branch2][C][=C][Ring1][=Branch1][Ring2][Ring1][=Branch2][C][Branch1][N][C][=C][C][=C][Branch1][C][Mo][C][=C][Ring1][#Branch1][Branch1][N][C][=C][C][=C][Branch1][C][Mo][C][=C][Ring1][#Branch1][C][=C][Ring2][Ring1][Branch1][S][C][C][=C][Branch2][Ring1][=Branch2][/C][=C][\C][=Branch1][C][=O][C][=C][C][=C][C][=C][Ring1][=Branch1][C][Ring1][#Branch2][=C][Branch1][Ring1][C][#N][C][#N][S][C][Ring2][Ring1][Branch2][=Ring2][Ring1][Branch1][C][=Branch1][C][=O][C][=C][C][=C][C][=C][Ring1][=Branch1][Ring2][=Branch1][#C],{[$]c1ccc(-c2c3c(c(-c4ccc(-c5cc6c(-c7ccc([Cr])s7)c7sc([$])cc7c(-c7ccc([Cr])s7)c6s5)s4)c4nn([Ti])nc24)C(=O)N([Ti])C3=O)s1}.N#CC(C#N)=C1/C(=C/c2cc3sc4c(c3s2)C(c2ccc([Mo])cc2)(c2ccc([Mo])cc2)c2cc3c(cc2-4)C(c2ccc([Mo])cc2)(c2ccc([Mo])cc2)c2c-3sc3cc(/C=C4\C(=O)c5ccccc5C4=C(C#N)C#N)sc23)C(=O)c2ccccc21
P3HT,NAI-FN-NAI(HD),-5.057777777777777,-2.989444444444445,1.9,-2.068333333333332,-6.06,-3.98,-2.08,2.12,1:1,CB,_,25.0,PEDOT:PSS,LiF,2.8,2.85692,0.88,7.55,43.0,CCCCCCc1cc(-c2sc(-c3sc(-c4sc(C)cc4CCCCCC)cc3CCCCCC)cc2CCCCCC)sc1C.O=C1c2cc(-c3ccc(-c4ccc5c6c(cccc46)C(=O)N([Sc])C5=O)s3)ccc2-c2ccc(-c3ccc(-c4ccc5c6c(cccc46)C(=O)N([Sc])C5=O)s3)cc21,[C][C][C][C][C][C][C][C][=C][Branch2][Ring2][P][C][S][C][Branch2][Ring1][S][C][S][C][Branch1][P][C][S][C][Branch1][C][C][=C][C][=Ring1][=Branch1][C][C][C][C][C][C][=C][C][=Ring1][P][C][C][C][C][C][C][=C][C][=Ring2][Ring1][N][C][C][C][C][C][C][S][C][=Ring2][Ring2][#Branch1][C].[O][=C][C][=C][C][Branch2][Ring2][Branch2][C][=C][C][=C][Branch2][Ring1][=N][C][=C][C][=C][C][=C][Branch1][=Branch2][C][=C][C][=C][Ring1][#Branch2][Ring1][=Branch1][C][=Branch1][C][=O][N][Branch1][C][Sc][C][Ring1][N][=O][S][Ring2][Ring1][Branch1][=C][C][=C][Ring2][Ring1][O][C][=C][C][=C][Branch2][Ring2][Branch2][C][=C][C][=C][Branch2][Ring1][=N][C][=C][C][=C][C][=C][Branch1][=Branch2][C][=C][C][=C][Ring1][#Branch2][Ring1][=Branch1][C][=Branch1][C][=O][N][Branch1][C][Sc][C][Ring1][N][=O][S][Ring2][Ring1][Branch1][C][=C][Ring2][Ring1][O][Ring2][Branch1][#Branch1],{CCCCCCc1cc(-c2sc(-c3sc(-c4sc([$])cc4CCCCCC)cc3CCCCCC)cc2CCCCCC)sc1[$]}.O=C1c2cc(-c3ccc(-c4ccc5c6c(cccc46)C(=O)N([Sc])C5=O)s3)ccc2-c2ccc(-c3ccc(-c4ccc5c6c(cccc46)C(=O)N([Sc])C5=O)s3)cc21
FTAZ,INIC,-5.43,-3.3200000000000003,2.0,-2.1099999999999994,-5.45,-3.88,-1.5700000000000005,1.57,1:1.5,CF,DIO,25.0,MoOx,ZnO,7.7,7.48593153,0.957,13.51,57.9,Cc1ccc(-c2c(F)c(F)c(-c3ccc(-c4cc5c([Co])c6sc(C)cc6c([Co])c5s4)s3)c3nn([Co])nc23)s1.N#CC(C#N)=C1/C(=C/c2cc3sc4c5c(sc4c3s2)-c2cc3c(cc2C5(c2ccc([Mo])cc2)c2ccc([Mo])cc2)-c2sc4c(sc5cc(/C=C6\C(=O)c7ccccc7C6=C(C#N)C#N)sc54)c2C3(c2ccc([Mo])cc2)c2ccc([Mo])cc2)C(=O)c2ccccc21,[C][C][=C][C][=C][Branch2][Branch1][P][C][=C][Branch1][C][F][C][Branch1][C][F][=C][Branch2][Ring2][#Branch1][C][=C][C][=C][Branch2][Ring1][N][C][=C][C][=C][Branch1][C][Co][C][S][C][Branch1][C][C][=C][C][=Ring1][=Branch1][C][Branch1][C][Co][=C][Ring1][N][S][Ring1][#C][S][Ring2][Ring1][Ring2][C][=N][N][Branch1][C][Co][N][=C][Ring2][Ring1][S][Ring1][=Branch1][S][Ring2][Ring2][Branch1].[N][#C][C][Branch1][Ring1][C][#N][=C][/C][=Branch2][#Branch2][=Branch2][=C][/C][=C][C][S][C][C][=C][Branch1][O][S][C][=Ring1][Branch1][C][=Ring1][Branch2][S][Ring1][O][C][=C][C][=C][Branch2][Ring1][S][C][=C][Ring1][=Branch1][C][Ring1][=N][Branch1][N][C][=C][C][=C][Branch1][C][Mo][C][=C][Ring1][#Branch1][C][=C][C][=C][Branch1][C][Mo][C][=C][Ring1][#Branch1][C][S][C][=C][Branch2][Ring2][Branch2][S][C][C][=C][Branch2][Ring1][=Branch2][/C][=C][\C][=Branch1][C][=O][C][=C][C][=C][C][=C][Ring1][=Branch1][C][Ring1][#Branch2][=C][Branch1][Ring1][C][#N][C][#N][S][C][=Ring2][Ring1][Branch1][Ring2][Ring1][Branch2][C][=Ring2][Ring1][O][C][Ring2][Ring2][#C][Branch1][N][C][=C][C][=C][Branch1][C][Mo][C][=C][Ring1][#Branch1][C][=C][C][=C][Branch1][C][Mo][C][=C][Ring1][#Branch1][C][=Branch1][C][=O][C][=C][C][=C][C][=C][Ring1][=Branch1][Ring2][#Branch1][Branch1],{[$]c1ccc(-c2c(F)c(F)c(-c3ccc(-c4cc5c([Co])c6sc([$])cc6c([Co])c5s4)s3)c3nn([Co])nc23)s1}.N#CC(C#N)=C1/C(=C/c2cc3sc4c5c(sc4c3s2)-c2cc3c(cc2C5(c2ccc([Mo])cc2)c2ccc([Mo])cc2)-c2sc4c(sc5cc(/C=C6\C(=O)c7ccccc7C6=C(C#N)C#N)sc54)c2C3(c2ccc([Mo])cc2)c2ccc([Mo])cc2)C(=O)c2ccccc21
FTAZ,INIC1,-5.43,-3.3200000000000003,2.0,-2.1099999999999994,-5.54,-3.97,-1.5699999999999998,1.56,1:1.5,CF,DIO,25.0,MoOx,ZnO,10.1,9.93388061,0.929,16.63,64.3,Cc1ccc(-c2c(F)c(F)c(-c3ccc(-c4cc5c([Co])c6sc(C)cc6c([Co])c5s4)s3)c3nn([Co])nc23)s1.N#CC(C#N)=C1/C(=C/c2cc3sc4c5c(sc4c3s2)-c2cc3c(cc2C5(c2ccc([Mo])cc2)c2ccc([Mo])cc2)-c2sc4c(sc5cc(/C=C6\C(=O)c7c(F)cccc7C6=C(C#N)C#N)sc54)c2C3(c2ccc([Mo])cc2)c2ccc([Mo])cc2)C(=O)c2c(F)cccc21,[C][C][=C][C][=C][Branch2][Branch1][P][C][=C][Branch1][C][F][C][Branch1][C][F][=C][Branch2][Ring2][#Branch1][C][=C][C][=C][Branch2][Ring1][N][C][=C][C][=C][Branch1][C][Co][C][S][C][Branch1][C][C][=C][C][=Ring1][=Branch1][C][Branch1][C][Co][=C][Ring1][N][S][Ring1][#C][S][Ring2][Ring1][Ring2][C][=N][N][Branch1][C][Co][N][=C][Ring2][Ring1][S][Ring1][=Branch1][S][Ring2][Ring2][Branch1].[N][#C][C][Branch1][Ring1][C][#N][=C][/C][=Branch2][#Branch2][N][=C][/C][=C][C][S][C][C][=C][Branch1][O][S][C][=Ring1][Branch1][C][=Ring1][Branch2][S][Ring1][O][C][=C][C][=C][Branch2][Ring1][S][C][=C][Ring1][=Branch1][C][Ring1][=N][Branch1][N][C][=C][C][=C][Branch1][C][Mo][C][=C][Ring1][#Branch1][C][=C][C][=C][Branch1][C][Mo][C][=C][Ring1][#Branch1][C][S][C][=C][Branch2][Ring2][O][S][C][C][=C][Branch2][Ring1][N][/C][=C][\C][=Branch1][C][=O][C][=C][Branch1][C][F][C][=C][C][=C][Ring1][#Branch1][C][Ring1][O][=C][Branch1][Ring1][C][#N][C][#N][S][C][=Ring2][Ring1][=Branch1][Ring2][Ring1][=Branch2][C][=Ring2][Ring1][N][C][Ring2][Ring2][S][Branch1][N][C][=C][C][=C][Branch1][C][Mo][C][=C][Ring1][#Branch1][C][=C][C][=C][Branch1][C][Mo][C][=C][Ring1][#Branch1][C][=Branch1][C][=O][C][=C][Branch1][C][F][C][=C][C][=C][Ring1][#Branch1][Ring2][#Branch1][#Branch1],{[$]c1ccc(-c2c(F)c(F)c(-c3ccc(-c4cc5c([Co])c6sc([$])cc6c([Co])c5s4)s3)c3nn([Co])nc23)s1}.N#CC(C#N)=C1/C(=C/c2cc3sc4c5c(sc4c3s2)-c2cc3c(cc2C5(c2ccc([Mo])cc2)c2ccc([Mo])cc2)-c2sc4c(sc5cc(/C=C6\C(=O)c7c(F)cccc7C6=C(C#N)C#N)sc54)c2C3(c2ccc([Mo])cc2)c2ccc([Mo])cc2)C(=O)c2c(F)cccc21
FTAZ,INIC2,-5.43,-3.3200000000000003,2.0,-2.1099999999999994,-5.52,-3.98,-1.5399999999999996,1.52,1:1.5,CF,DIO,25.0,MoOx,ZnO,10.8,10.59226224,0.903,17.56,66.8,Cc1ccc(-c2c(F)c(F)c(-c3ccc(-c4cc5c([Co])c6sc(C)cc6c([Co])c5s4)s3)c3nn([Co])nc23)s1.N#CC(C#N)=C1/C(=C/c2cc3sc4c5c(sc4c3s2)-c2cc3c(cc2C5(c2ccc([Mo])cc2)c2ccc([Mo])cc2)-c2sc4c(sc5cc(/C=C6\C(=O)c7ccc(F)cc7C6=C(C#N)C#N)sc54)c2C3(c2ccc([Mo])cc2)c2ccc([Mo])cc2)C(=O)c2ccc(F)cc21,[C][C][=C][C][=C][Branch2][Branch1][P][C][=C][Branch1][C][F][C][Branch1][C][F][=C][Branch2][Ring2][#Branch1][C][=C][C][=C][Branch2][Ring1][N][C][=C][C][=C][Branch1][C][Co][C][S][C][Branch1][C][C][=C][C][=Ring1][=Branch1][C][Branch1][C][Co][=C][Ring1][N][S][Ring1][#C][S][Ring2][Ring1][Ring2][C][=N][N][Branch1][C][Co][N][=C][Ring2][Ring1][S][Ring1][=Branch1][S][Ring2][Ring2][Branch1].[N][#C][C][Branch1][Ring1][C][#N][=C][/C][=Branch2][#Branch2][N][=C][/C][=C][C][S][C][C][=C][Branch1][O][S][C][=Ring1][Branch1][C][=Ring1][Branch2][S][Ring1][O][C][=C][C][=C][Branch2][Ring1][S][C][=C][Ring1][=Branch1][C][Ring1][=N][Branch1][N][C][=C][C][=C][Branch1][C][Mo][C][=C][Ring1][#Branch1][C][=C][C][=C][Branch1][C][Mo][C][=C][Ring1][#Branch1][C][S][C][=C][Branch2][Ring2][O][S][C][C][=C][Branch2][Ring1][N][/C][=C][\C][=Branch1][C][=O][C][=C][C][=C][Branch1][C][F][C][=C][Ring1][#Branch1][C][Ring1][O][=C][Branch1][Ring1][C][#N][C][#N][S][C][=Ring2][Ring1][=Branch1][Ring2][Ring1][=Branch2][C][=Ring2][Ring1][N][C][Ring2][Ring2][S][Branch1][N][C][=C][C][=C][Branch1][C][Mo][C][=C][Ring1][#Branch1][C][=C][C][=C][Branch1][C][Mo][C][=C][Ring1][#Branch1][C][=Branch1][C][=O][C][=C][C][=C][Branch1][C][F][C][=C][Ring1][#Branch1][Ring2][#Branch1][#Branch1],{[$]c1ccc(-c2c(F)c(F)c(-c3ccc(-c4cc5c([Co])c6sc([$])cc6c([Co])c5s4)s3)c3nn([Co])nc23)s1}.N#CC(C#N)=C1/C(=C/c2cc3sc4c5c(sc4c3s2)-c2cc3c(cc2C5(c2ccc([Mo])cc2)c2ccc([Mo])cc2)-c2sc4c(sc5cc(/C=C6\C(=O)c7ccc(F)cc7C6=C(C#N)C#N)sc54)c2C3(c2ccc([Mo])cc2)c2ccc([Mo])cc2)C(=O)c2ccc(F)cc21
FTAZ,INIC3,-5.43,-3.3200000000000003,2.0,-2.1099999999999994,-5.52,-3.995,-1.5249999999999997,1.485,1:1.5,CF,DIO,25.0,MoOx,ZnO,11.5,11.22889392,0.857,19.44,67.4,Cc1ccc(-c2c(F)c(F)c(-c3ccc(-c4cc5c([Co])c6sc(C)cc6c([Co])c5s4)s3)c3nn([Co])nc23)s1.N#CC(C#N)=C1/C(=C/c2cc3sc4c5c(sc4c3s2)-c2cc3c(cc2C5(c2ccc([Mo])cc2)c2ccc([Mo])cc2)-c2sc4c(sc5cc(/C=C6\C(=O)c7cc(F)c(F)cc7C6=C(C#N)C#N)sc54)c2C3(c2ccc([Mo])cc2)c2ccc([Mo])cc2)C(=O)c2cc(F)c(F)cc21,[C][C][=C][C][=C][Branch2][Branch1][P][C][=C][Branch1][C][F][C][Branch1][C][F][=C][Branch2][Ring2][#Branch1][C][=C][C][=C][Branch2][Ring1][N][C][=C][C][=C][Branch1][C][Co][C][S][C][Branch1][C][C][=C][C][=Ring1][=Branch1][C][Branch1][C][Co][=C][Ring1][N][S][Ring1][#C][S][Ring2][Ring1][Ring2][C][=N][N][Branch1][C][Co][N][=C][Ring2][Ring1][S][Ring1][=Branch1][S][Ring2][Ring2][Branch1].[N][#C][C][Branch1][Ring1][C][#N][=C][/C][=Branch2][#Branch2][#C][=C][/C][=C][C][S][C][C][=C][Branch1][O][S][C][=Ring1][Branch1][C][=Ring1][Branch2][S][Ring1][O][C][=C][C][=C][Branch2][Ring1][S][C][=C][Ring1][=Branch1][C][Ring1][=N][Branch1][N][C][=C][C][=C][Branch1][C][Mo][C][=C][Ring1][#Branch1][C][=C][C][=C][Branch1][C][Mo][C][=C][Ring1][#Branch1][C][S][C][=C][Branch2][Ring2][=C][S][C][C][=C][Branch2][Ring1][#C][/C][=C][\C][=Branch1][C][=O][C][=C][C][Branch1][C][F][=C][Branch1][C][F][C][=C][Ring1][Branch2][C][Ring1][N][=C][Branch1][Ring1][C][#N][C][#N][S][C][=Ring2][Ring1][#Branch1][Ring2][Ring1][#Branch2][C][=Ring2][Ring1][=N][C][Ring2][Ring2][P][Branch1][N][C][=C][C][=C][Branch1][C][Mo][C][=C][Ring1][#Branch1][C][=C][C][=C][Branch1][C][Mo][C][=C][Ring1][#Branch1][C][=Branch1][C][=O][C][=C][C][Branch1][C][F][=C][Branch1][C][F][C][=C][Ring1][Branch2][Ring2][#Branch1][=Branch2],{[$]c1ccc(-c2c(F)c(F)c(-c3ccc(-c4cc5c([Co])c6sc([$])cc6c([Co])c5s4)s3)c3nn([Co])nc23)s1}.N#CC(C#N)=C1/C(=C/c2cc3sc4c5c(sc4c3s2)-c2cc3c(cc2C5(c2ccc([Mo])cc2)c2ccc([Mo])cc2)-c2sc4c(sc5cc(/C=C6\C(=O)c7cc(F)c(F)cc7C6=C(C#N)C#N)sc54)c2C3(c2ccc([Mo])cc2)c2ccc([Mo])cc2)C(=O)c2cc(F)c(F)cc21
PTB7-Th,F6IC,-5.21,-3.542368421052632,1.5883333333333332,-1.667631578947368,-5.63,-4.115,-1.5149999999999997,1.34,1:1.7,CF,DPE,25.0,MoOx,ZnO,7.1,7.0660928,0.611,18.07,64.0,Cc1cc2c(-c3ccc([Cr])s3)c3sc(-c4sc(C)c5c(F)c(C(=O)O[Cr])sc45)cc3c(-c3ccc([Cr])s3)c2s1.N#CC(C#N)=C1/C(=C/c2cc3c(s2)-c2sc4c5c(sc4c2C3(c2ccc([Mo])cc2)c2ccc([Mo])cc2)-c2sc(/C=C3\C(=O)c4cc(F)c(F)cc4C3=C(C#N)C#N)cc2C5(c2ccc([Mo])cc2)c2ccc([Mo])cc2)C(=O)c2cc(F)c(F)cc21,[C][C][=C][C][=C][Branch1][O][C][=C][C][=C][Branch1][C][Cr][S][Ring1][=Branch1][C][S][C][Branch2][Ring1][O][C][S][C][Branch1][C][C][=C][C][Branch1][C][F][=C][Branch1][#Branch1][C][=Branch1][C][=O][O][Cr][S][C][=Ring1][=C][Ring1][#Branch2][=C][C][=Ring2][Ring1][Ring1][C][Branch1][O][C][=C][C][=C][Branch1][C][Cr][S][Ring1][=Branch1][=C][Ring2][Ring2][Ring1][S][Ring2][Ring2][=Branch1].[N][#C][C][Branch1][Ring1][C][#N][=C][/C][=Branch2][=Branch2][#Branch2][=C][/C][=C][C][=C][Branch1][Ring2][S][Ring1][Branch1][C][S][C][C][=C][Branch2][Ring2][Ring1][S][C][=Ring1][Branch1][C][=Ring1][Branch2][C][Ring1][N][Branch1][N][C][=C][C][=C][Branch1][C][Mo][C][=C][Ring1][#Branch1][C][=C][C][=C][Branch1][C][Mo][C][=C][Ring1][#Branch1][C][S][C][Branch2][Ring1][#C][/C][=C][\C][=Branch1][C][=O][C][=C][C][Branch1][C][F][=C][Branch1][C][F][C][=C][Ring1][Branch2][C][Ring1][N][=C][Branch1][Ring1][C][#N][C][#N][=C][C][=Ring2][Ring1][#Branch1][C][Ring2][Ring2][N][Branch1][N][C][=C][C][=C][Branch1][C][Mo][C][=C][Ring1][#Branch1][C][=C][C][=C][Branch1][C][Mo][C][=C][Ring1][#Branch1][C][=Branch1][C][=O][C][=C][C][Branch1][C][F][=C][Branch1][C][F][C][=C][Ring1][Branch2][Ring2][=Branch1][#C],{[$]c1cc2c(-c3ccc([Cr])s3)c3sc(-c4sc([$])c5c(F)c(C(=O)O[Cr])sc45)cc3c(-c3ccc([Cr])s3)c2s1}.N#CC(C#N)=C1/C(=C/c2cc3c(s2)-c2sc4c5c(sc4c2C3(c2ccc([Mo])cc2)c2ccc([Mo])cc2)-c2sc(/C=C3\C(=O)c4cc(F)c(F)cc4C3=C(C#N)C#N)cc2C5(c2ccc([Mo])cc2)c2ccc([Mo])cc2)C(=O)c2cc(F)c(F)cc21
PTB7-Th,F8IC,-5.21,-3.542368421052632,1.5883333333333332,-1.667631578947368,-5.44,-4.07,-1.37,1.255,1:1.7,CF,DPE,25.0,MoOx,ZnO,10.9,10.8679168,0.64,25.12,67.6,Cc1cc2c(-c3ccc([Cr])s3)c3sc(-c4sc(C)c5c(F)c(C(=O)O[Cr])sc45)cc3c(-c3ccc([Cr])s3)c2s1.N#CC(C#N)=C1/C(=C/c2cc3sc4c(c3s2)C(c2ccc([Mo])cc2)(c2ccc([Mo])cc2)c2c-4sc3c4c(sc23)-c2sc3cc(/C=C5\C(=O)c6cc(F)c(F)cc6C5=C(C#N)C#N)sc3c2C4(c2ccc([Mo])cc2)c2ccc([Mo])cc2)C(=O)c2cc(F)c(F)cc21,[C][C][=C][C][=C][Branch1][O][C][=C][C][=C][Branch1][C][Cr][S][Ring1][=Branch1][C][S][C][Branch2][Ring1][O][C][S][C][Branch1][C][C][=C][C][Branch1][C][F][=C][Branch1][#Branch1][C][=Branch1][C][=O][O][Cr][S][C][=Ring1][=C][Ring1][#Branch2][=C][C][=Ring2][Ring1][Ring1][C][Branch1][O][C][=C][C][=C][Branch1][C][Cr][S][Ring1][=Branch1][=C][Ring2][Ring2][Ring1][S][Ring2][Ring2][=Branch1].[N][#C][C][Branch1][Ring1][C][#N][=C][/C][=Branch2][#Branch2][#Branch1][=C][/C][=C][C][S][C][=C][Branch1][#Branch1][C][=Ring1][Branch1][S][Ring1][Branch2][C][Branch1][N][C][=C][C][=C][Branch1][C][Mo][C][=C][Ring1][#Branch1][Branch1][N][C][=C][C][=C][Branch1][C][Mo][C][=C][Ring1][#Branch1][C][=C][Ring2][Ring1][Branch1][S][C][C][=C][Branch1][#Branch1][S][C][Ring1][Branch2][=Ring1][Branch1][C][S][C][C][=C][Branch2][Ring1][#C][/C][=C][\C][=Branch1][C][=O][C][=C][C][Branch1][C][F][=C][Branch1][C][F][C][=C][Ring1][Branch2][C][Ring1][N][=C][Branch1][Ring1][C][#N][C][#N][S][C][=Ring2][Ring1][#Branch1][C][=Ring2][Ring1][#Branch2][C][Ring2][Ring1][#C][Branch1][N][C][=C][C][=C][Branch1][C][Mo][C][=C][Ring1][#Branch1][C][=C][C][=C][Branch1][C][Mo][C][=C][Ring1][#Branch1][C][=Branch1][C][=O][C][=C][C][Branch1][C][F][=C][Branch1][C][F][C][=C][Ring1][Branch2][Ring2][#Branch1][Branch1],{[$]c1cc2c(-c3ccc([Cr])s3)c3sc(-c4sc([$])c5c(F)c(C(=O)O[Cr])sc45)cc3c(-c3ccc([Cr])s3)c2s1}.N#CC(C#N)=C1/C(=C/c2cc3sc4c(c3s2)C(c2ccc([Mo])cc2)(c2ccc([Mo])cc2)c2c-4sc3c4c(sc23)-c2sc3cc(/C=C5\C(=O)c6cc(F)c(F)cc6C5=C(C#N)C#N)sc3c2C4(c2ccc([Mo])cc2)c2ccc([Mo])cc2)C(=O)c2cc(F)c(F)cc21