Donor,Acceptor,HOMO_D_eV,LUMO_D_eV,Eg_D_eV,Ehl_D_eV,HOMO_A_eV,LUMO_A_eV,Ehl_A_eV,Eg_A_eV,D_A_ratio_m_m,solvent,solvent_additive,annealing_temperature,hole_contact_layer,electron_contact_layer,PCE_percent,calc_PCE_percent,Voc_V,Jsc_mA_cm_pow_neg2,FF_percent,DA_SMILES,DA_SELFIES,DA_BigSMILES
PJ2,m-ITIC,-5.14,-3.33,1.81,-1.81,-5.527142857142858,-3.8541666666666674,-1.6729761904761902,1.5783333333333334,1:1.5,CF,DIO,130.0,PEDOT:PSS,PDINO,10.34,10.3408032,0.988,16.8,62.3,Cc1ccc(-c2sc(-c3ccc(-c4cc5c(-c6ccc([V])s6)c6sc(C)cc6c(-c6ccc([V])s6)c5s4)s3)c3c2C(=O)c2c([Cr])sc([Cr])c2C3=O)s1.N#CC(C#N)=C1/C(=C/c2cc3sc4c(c3s2)C(c2cccc([Mo])c2)(c2cccc([Mo])c2)c2cc3c(cc2-4)C(c2cccc([Mo])c2)(c2cccc([Mo])c2)c2c-3sc3cc(/C=C4\C(=O)c5ccccc5C4=C(C#N)C#N)sc23)C(=O)c2ccccc21,[C][C][=C][C][=C][Branch2][#Branch1][O][C][S][C][Branch2][Branch1][O][C][=C][C][=C][Branch2][Ring2][S][C][=C][C][=C][Branch1][O][C][=C][C][=C][Branch1][C][V][S][Ring1][=Branch1][C][S][C][Branch1][C][C][=C][C][=Ring1][=Branch1][C][Branch1][O][C][=C][C][=C][Branch1][C][V][S][Ring1][=Branch1][=C][Ring2][Ring1][=Branch1][S][Ring2][Ring1][=Branch2][S][Ring2][Ring1][=C][=C][C][=Ring2][Ring2][Ring1][C][=Branch1][C][=O][C][=C][Branch1][C][Cr][S][C][Branch1][C][Cr][=C][Ring1][#Branch1][C][Ring1][N][=O][S][Ring2][Branch1][Ring1].[N][#C][C][Branch1][Ring1][C][#N][=C][/C][=Branch2][=Branch2][#C][=C][/C][=C][C][S][C][=C][Branch1][#Branch1][C][=Ring1][Branch1][S][Ring1][Branch2][C][Branch1][N][C][=C][C][=C][C][Branch1][C][Mo][=C][Ring1][#Branch1][Branch1][N][C][=C][C][=C][C][Branch1][C][Mo][=C][Ring1][#Branch1][C][=C][C][=C][Branch1][Branch2][C][=C][Ring1][=Branch1][Ring2][Ring1][=Branch2][C][Branch1][N][C][=C][C][=C][C][Branch1][C][Mo][=C][Ring1][#Branch1][Branch1][N][C][=C][C][=C][C][Branch1][C][Mo][=C][Ring1][#Branch1][C][=C][Ring2][Ring1][Branch1][S][C][C][=C][Branch2][Ring1][=Branch2][/C][=C][\C][=Branch1][C][=O][C][=C][C][=C][C][=C][Ring1][=Branch1][C][Ring1][#Branch2][=C][Branch1][Ring1][C][#N][C][#N][S][C][Ring2][Ring1][Branch2][=Ring2][Ring1][Branch1][C][=Branch1][C][=O][C][=C][C][=C][C][=C][Ring1][=Branch1][Ring2][=Branch1][#C],{[$]c1ccc(-c2sc(-c3ccc(-c4cc5c(-c6ccc([V])s6)c6sc([$])cc6c(-c6ccc([V])s6)c5s4)s3)c3c2C(=O)c2c([Cr])sc([Cr])c2C3=O)s1}.N#CC(C#N)=C1/C(=C/c2cc3sc4c(c3s2)C(c2cccc([Mo])c2)(c2cccc([Mo])c2)c2cc3c(cc2-4)C(c2cccc([Mo])c2)(c2cccc([Mo])c2)c2c-3sc3cc(/C=C4\C(=O)c5ccccc5C4=C(C#N)C#N)sc23)C(=O)c2ccccc21
PJ2,IDIC,-5.14,-3.33,1.81,-1.81,-5.705,-3.996875,-1.708125,1.6358333333333337,1:1.5,CF,DIO,130.0,PEDOT:PSS,PDINO,12.01,12.020139,0.939,17.0,75.3,Cc1ccc(-c2sc(-c3ccc(-c4cc5c(-c6ccc([V])s6)c6sc(C)cc6c(-c6ccc([V])s6)c5s4)s3)c3c2C(=O)c2c([Cr])sc([Cr])c2C3=O)s1.N#CC(C#N)=C1/C(=C/c2cc3c(s2)-c2cc4c(cc2C3([Mo])[Mo])-c2sc(/C=C3\C(=O)c5ccccc5C3=C(C#N)C#N)cc2C4([Mo])[Mo])C(=O)c2ccccc21,[C][C][=C][C][=C][Branch2][#Branch1][O][C][S][C][Branch2][Branch1][O][C][=C][C][=C][Branch2][Ring2][S][C][=C][C][=C][Branch1][O][C][=C][C][=C][Branch1][C][V][S][Ring1][=Branch1][C][S][C][Branch1][C][C][=C][C][=Ring1][=Branch1][C][Branch1][O][C][=C][C][=C][Branch1][C][V][S][Ring1][=Branch1][=C][Ring2][Ring1][=Branch1][S][Ring2][Ring1][=Branch2][S][Ring2][Ring1][=C][=C][C][=Ring2][Ring2][Ring1][C][=Branch1][C][=O][C][=C][Branch1][C][Cr][S][C][Branch1][C][Cr][=C][Ring1][#Branch1][C][Ring1][N][=O][S][Ring2][Branch1][Ring1].[N][#C][C][Branch1][Ring1][C][#N][=C][/C][=Branch2][=Branch1][#Branch1][=C][/C][=C][C][=C][Branch1][Ring2][S][Ring1][Branch1][C][=C][C][=C][Branch1][N][C][=C][Ring1][=Branch1][C][Ring1][#Branch2][Branch1][C][Mo][Mo][C][S][C][Branch2][Ring1][=Branch2][/C][=C][\C][=Branch1][C][=O][C][=C][C][=C][C][=C][Ring1][=Branch1][C][Ring1][#Branch2][=C][Branch1][Ring1][C][#N][C][#N][=C][C][=Ring2][Ring1][Branch1][C][Ring2][Ring1][=N][Branch1][C][Mo][Mo][C][=Branch1][C][=O][C][=C][C][=C][C][=C][Ring1][=Branch1][Ring2][Ring2][P],{[$]c1ccc(-c2sc(-c3ccc(-c4cc5c(-c6ccc([V])s6)c6sc([$])cc6c(-c6ccc([V])s6)c5s4)s3)c3c2C(=O)c2c([Cr])sc([Cr])c2C3=O)s1}.N#CC(C#N)=C1/C(=C/c2cc3c(s2)-c2cc4c(cc2C3([Mo])[Mo])-c2sc(/C=C3\C(=O)c5ccccc5C3=C(C#N)C#N)cc2C4([Mo])[Mo])C(=O)c2ccccc21
PJ3,m-ITIC,-5.01,-3.26,1.75,-1.75,-5.527142857142858,-3.8541666666666674,-1.6729761904761902,1.5783333333333334,1:1.5,CF,DIO,130.0,PEDOT:PSS,PDINO,7.76,7.74192,0.96,12.7,63.5,Cc1cc2c(-c3ccc([V])s3)c3sc(-c4sc(-c5c(F)c(F)c(-c6cc([Fe])c(C)s6)c6nsnc56)cc4[Fe])cc3c(-c3ccc([V])s3)c2s1.N#CC(C#N)=C1/C(=C/c2cc3sc4c(c3s2)C(c2cccc([Mo])c2)(c2cccc([Mo])c2)c2cc3c(cc2-4)C(c2cccc([Mo])c2)(c2cccc([Mo])c2)c2c-3sc3cc(/C=C4\C(=O)c5ccccc5C4=C(C#N)C#N)sc23)C(=O)c2ccccc21,[C][C][=C][C][=C][Branch1][O][C][=C][C][=C][Branch1][C][V][S][Ring1][=Branch1][C][S][C][Branch2][Ring2][S][C][S][C][Branch2][Ring2][Ring2][C][=C][Branch1][C][F][C][Branch1][C][F][=C][Branch1][=C][C][=C][C][Branch1][C][Fe][=C][Branch1][C][C][S][Ring1][#Branch1][C][=N][S][N][=C][Ring2][Ring1][C][Ring1][Branch1][=C][C][=Ring2][Ring1][#Branch1][Fe][=C][C][=Ring2][Ring1][=N][C][Branch1][O][C][=C][C][=C][Branch1][C][V][S][Ring1][=Branch1][=C][Ring2][Ring2][=N][S][Ring2][Ring2][S].[N][#C][C][Branch1][Ring1][C][#N][=C][/C][=Branch2][=Branch2][#C][=C][/C][=C][C][S][C][=C][Branch1][#Branch1][C][=Ring1][Branch1][S][Ring1][Branch2][C][Branch1][N][C][=C][C][=C][C][Branch1][C][Mo][=C][Ring1][#Branch1][Branch1][N][C][=C][C][=C][C][Branch1][C][Mo][=C][Ring1][#Branch1][C][=C][C][=C][Branch1][Branch2][C][=C][Ring1][=Branch1][Ring2][Ring1][=Branch2][C][Branch1][N][C][=C][C][=C][C][Branch1][C][Mo][=C][Ring1][#Branch1][Branch1][N][C][=C][C][=C][C][Branch1][C][Mo][=C][Ring1][#Branch1][C][=C][Ring2][Ring1][Branch1][S][C][C][=C][Branch2][Ring1][=Branch2][/C][=C][\C][=Branch1][C][=O][C][=C][C][=C][C][=C][Ring1][=Branch1][C][Ring1][#Branch2][=C][Branch1][Ring1][C][#N][C][#N][S][C][Ring2][Ring1][Branch2][=Ring2][Ring1][Branch1][C][=Branch1][C][=O][C][=C][C][=C][C][=C][Ring1][=Branch1][Ring2][=Branch1][#C],{[$]c1cc2c(-c3ccc([V])s3)c3sc(-c4sc(-c5c(F)c(F)c(-c6cc([Fe])c([$])s6)c6nsnc56)cc4[Fe])cc3c(-c3ccc([V])s3)c2s1}.N#CC(C#N)=C1/C(=C/c2cc3sc4c(c3s2)C(c2cccc([Mo])c2)(c2cccc([Mo])c2)c2cc3c(cc2-4)C(c2cccc([Mo])c2)(c2cccc([Mo])c2)c2c-3sc3cc(/C=C4\C(=O)c5ccccc5C4=C(C#N)C#N)sc23)C(=O)c2ccccc21
PJ3,IDIC,-5.01,-3.26,1.75,-1.75,-5.705,-3.996875,-1.708125,1.6358333333333337,1:1.5,CF,DIO,130.0,PEDOT:PSS,PDINO,8.11,8.1124352,0.908,12.8,69.8,Cc1cc2c(-c3ccc([V])s3)c3sc(-c4sc(-c5c(F)c(F)c(-c6cc([Fe])c(C)s6)c6nsnc56)cc4[Fe])cc3c(-c3ccc([V])s3)c2s1.N#CC(C#N)=C1/C(=C/c2cc3c(s2)-c2cc4c(cc2C3([Mo])[Mo])-c2sc(/C=C3\C(=O)c5ccccc5C3=C(C#N)C#N)cc2C4([Mo])[Mo])C(=O)c2ccccc21,[C][C][=C][C][=C][Branch1][O][C][=C][C][=C][Branch1][C][V][S][Ring1][=Branch1][C][S][C][Branch2][Ring2][S][C][S][C][Branch2][Ring2][Ring2][C][=C][Branch1][C][F][C][Branch1][C][F][=C][Branch1][=C][C][=C][C][Branch1][C][Fe][=C][Branch1][C][C][S][Ring1][#Branch1][C][=N][S][N][=C][Ring2][Ring1][C][Ring1][Branch1][=C][C][=Ring2][Ring1][#Branch1][Fe][=C][C][=Ring2][Ring1][=N][C][Branch1][O][C][=C][C][=C][Branch1][C][V][S][Ring1][=Branch1][=C][Ring2][Ring2][=N][S][Ring2][Ring2][S].[N][#C][C][Branch1][Ring1][C][#N][=C][/C][=Branch2][=Branch1][#Branch1][=C][/C][=C][C][=C][Branch1][Ring2][S][Ring1][Branch1][C][=C][C][=C][Branch1][N][C][=C][Ring1][=Branch1][C][Ring1][#Branch2][Branch1][C][Mo][Mo][C][S][C][Branch2][Ring1][=Branch2][/C][=C][\C][=Branch1][C][=O][C][=C][C][=C][C][=C][Ring1][=Branch1][C][Ring1][#Branch2][=C][Branch1][Ring1][C][#N][C][#N][=C][C][=Ring2][Ring1][Branch1][C][Ring2][Ring1][=N][Branch1][C][Mo][Mo][C][=Branch1][C][=O][C][=C][C][=C][C][=C][Ring1][=Branch1][Ring2][Ring2][P],{[$]c1cc2c(-c3ccc([V])s3)c3sc(-c4sc(-c5c(F)c(F)c(-c6cc([Fe])c([$])s6)c6nsnc56)cc4[Fe])cc3c(-c3ccc([V])s3)c2s1}.N#CC(C#N)=C1/C(=C/c2cc3c(s2)-c2cc4c(cc2C3([Mo])[Mo])-c2sc(/C=C3\C(=O)c5ccccc5C3=C(C#N)C#N)cc2C4([Mo])[Mo])C(=O)c2ccccc21
2D-PBTCl,ITIC,-5.45,-3.6,1.58,-1.85,-5.574285714285715,-3.9143137254901954,-1.659971988795519,1.5857894736842106,1:1,CB,DIO,25.0,MoOx,ZnO,8.81,8.81100948,0.91,15.79,61.32,Cc1cc2c(-c3ccc([Cr])s3)c3sc(-c4sc(C)c5c(Cl)c(-c6ccc(C(=O)O[Cr])s6)sc45)cc3c(-c3ccc([Cr])s3)c2s1.N#CC(C#N)=C1/C(=C/c2cc3sc4c(c3s2)C(c2ccc([Mo])cc2)(c2ccc([Mo])cc2)c2cc3c(cc2-4)C(c2ccc([Mo])cc2)(c2ccc([Mo])cc2)c2c-3sc3cc(/C=C4\C(=O)c5ccccc5C4=C(C#N)C#N)sc23)C(=O)c2ccccc21,[C][C][=C][C][=C][Branch1][O][C][=C][C][=C][Branch1][C][Cr][S][Ring1][=Branch1][C][S][C][Branch2][Ring2][Branch1][C][S][C][Branch1][C][C][=C][C][Branch1][C][Cl][=C][Branch1][S][C][=C][C][=C][Branch1][#Branch1][C][=Branch1][C][=O][O][Cr][S][Ring1][=Branch2][S][C][=Ring2][Ring1][Ring1][Ring1][#C][=C][C][=Ring2][Ring1][Branch2][C][Branch1][O][C][=C][C][=C][Branch1][C][Cr][S][Ring1][=Branch1][=C][Ring2][Ring2][Branch2][S][Ring2][Ring2][O].[N][#C][C][Branch1][Ring1][C][#N][=C][/C][=Branch2][=Branch2][#C][=C][/C][=C][C][S][C][=C][Branch1][#Branch1][C][=Ring1][Branch1][S][Ring1][Branch2][C][Branch1][N][C][=C][C][=C][Branch1][C][Mo][C][=C][Ring1][#Branch1][Branch1][N][C][=C][C][=C][Branch1][C][Mo][C][=C][Ring1][#Branch1][C][=C][C][=C][Branch1][Branch2][C][=C][Ring1][=Branch1][Ring2][Ring1][=Branch2][C][Branch1][N][C][=C][C][=C][Branch1][C][Mo][C][=C][Ring1][#Branch1][Branch1][N][C][=C][C][=C][Branch1][C][Mo][C][=C][Ring1][#Branch1][C][=C][Ring2][Ring1][Branch1][S][C][C][=C][Branch2][Ring1][=Branch2][/C][=C][\C][=Branch1][C][=O][C][=C][C][=C][C][=C][Ring1][=Branch1][C][Ring1][#Branch2][=C][Branch1][Ring1][C][#N][C][#N][S][C][Ring2][Ring1][Branch2][=Ring2][Ring1][Branch1][C][=Branch1][C][=O][C][=C][C][=C][C][=C][Ring1][=Branch1][Ring2][=Branch1][#C],{[$]c1cc2c(-c3ccc([Cr])s3)c3sc(-c4sc([$])c5c(Cl)c(-c6ccc(C(=O)O[Cr])s6)sc45)cc3c(-c3ccc([Cr])s3)c2s1}.N#CC(C#N)=C1/C(=C/c2cc3sc4c(c3s2)C(c2ccc([Mo])cc2)(c2ccc([Mo])cc2)c2cc3c(cc2-4)C(c2ccc([Mo])cc2)(c2ccc([Mo])cc2)c2c-3sc3cc(/C=C4\C(=O)c5ccccc5C4=C(C#N)C#N)sc23)C(=O)c2ccccc21
2D-PBTCl2,ITIC,-5.43,-3.63,1.48,-1.7999999999999998,-5.574285714285715,-3.9143137254901954,-1.659971988795519,1.5857894736842106,1:1,CB,DIO,25.0,MoOx,ZnO,7.38,7.38111132,0.87,14.52,58.43,Cc1cc2c(-c3ccc([Cr])s3)c3sc(-c4sc(C)c5c(Cl)c(-c6sc(C(=O)O[Cr])cc6Cl)sc45)cc3c(-c3ccc([Cr])s3)c2s1.N#CC(C#N)=C1/C(=C/c2cc3sc4c(c3s2)C(c2ccc([Mo])cc2)(c2ccc([Mo])cc2)c2cc3c(cc2-4)C(c2ccc([Mo])cc2)(c2ccc([Mo])cc2)c2c-3sc3cc(/C=C4\C(=O)c5ccccc5C4=C(C#N)C#N)sc23)C(=O)c2ccccc21,[C][C][=C][C][=C][Branch1][O][C][=C][C][=C][Branch1][C][Cr][S][Ring1][=Branch1][C][S][C][Branch2][Ring2][=Branch1][C][S][C][Branch1][C][C][=C][C][Branch1][C][Cl][=C][Branch1][P][C][S][C][Branch1][#Branch1][C][=Branch1][C][=O][O][Cr][=C][C][=Ring1][=Branch2][Cl][S][C][=Ring2][Ring1][Ring2][Ring1][S][=C][C][=Ring2][Ring1][=Branch2][C][Branch1][O][C][=C][C][=C][Branch1][C][Cr][S][Ring1][=Branch1][=C][Ring2][Ring2][=Branch2][S][Ring2][Ring2][N].[N][#C][C][Branch1][Ring1][C][#N][=C][/C][=Branch2][=Branch2][#C][=C][/C][=C][C][S][C][=C][Branch1][#Branch1][C][=Ring1][Branch1][S][Ring1][Branch2][C][Branch1][N][C][=C][C][=C][Branch1][C][Mo][C][=C][Ring1][#Branch1][Branch1][N][C][=C][C][=C][Branch1][C][Mo][C][=C][Ring1][#Branch1][C][=C][C][=C][Branch1][Branch2][C][=C][Ring1][=Branch1][Ring2][Ring1][=Branch2][C][Branch1][N][C][=C][C][=C][Branch1][C][Mo][C][=C][Ring1][#Branch1][Branch1][N][C][=C][C][=C][Branch1][C][Mo][C][=C][Ring1][#Branch1][C][=C][Ring2][Ring1][Branch1][S][C][C][=C][Branch2][Ring1][=Branch2][/C][=C][\C][=Branch1][C][=O][C][=C][C][=C][C][=C][Ring1][=Branch1][C][Ring1][#Branch2][=C][Branch1][Ring1][C][#N][C][#N][S][C][Ring2][Ring1][Branch2][=Ring2][Ring1][Branch1][C][=Branch1][C][=O][C][=C][C][=C][C][=C][Ring1][=Branch1][Ring2][=Branch1][#C],{[$]c1cc2c(-c3ccc([Cr])s3)c3sc(-c4sc([$])c5c(Cl)c(-c6sc(C(=O)O[Cr])cc6Cl)sc45)cc3c(-c3ccc([Cr])s3)c2s1}.N#CC(C#N)=C1/C(=C/c2cc3sc4c(c3s2)C(c2ccc([Mo])cc2)(c2ccc([Mo])cc2)c2cc3c(cc2-4)C(c2ccc([Mo])cc2)(c2ccc([Mo])cc2)c2c-3sc3cc(/C=C4\C(=O)c5ccccc5C4=C(C#N)C#N)sc23)C(=O)c2ccccc21
PBClT,ITIC,-5.47,-3.61,1.64,-1.86,-5.574285714285715,-3.9143137254901954,-1.659971988795519,1.5857894736842106,1:1,CB,_,25.0,MoOx,ZnO,8.46,8.46074475,1.01,13.95,60.05,Cc1cc2c(-c3cc(Cl)c([Cr])s3)c3sc(-c4sc(C)c5c(F)c(C(=O)O[Cr])sc45)cc3c(-c3cc(Cl)c([Cr])s3)c2s1.N#CC(C#N)=C1/C(=C/c2cc3sc4c(c3s2)C(c2ccc([Mo])cc2)(c2ccc([Mo])cc2)c2cc3c(cc2-4)C(c2ccc([Mo])cc2)(c2ccc([Mo])cc2)c2c-3sc3cc(/C=C4\C(=O)c5ccccc5C4=C(C#N)C#N)sc23)C(=O)c2ccccc21,[C][C][=C][C][=C][Branch1][=C][C][=C][C][Branch1][C][Cl][=C][Branch1][C][Cr][S][Ring1][#Branch1][C][S][C][Branch2][Ring1][O][C][S][C][Branch1][C][C][=C][C][Branch1][C][F][=C][Branch1][#Branch1][C][=Branch1][C][=O][O][Cr][S][C][=Ring1][=C][Ring1][#Branch2][=C][C][=Ring2][Ring1][Ring1][C][Branch1][=C][C][=C][C][Branch1][C][Cl][=C][Branch1][C][Cr][S][Ring1][#Branch1][=C][Ring2][Ring2][Branch1][S][Ring2][Ring2][Branch2].[N][#C][C][Branch1][Ring1][C][#N][=C][/C][=Branch2][=Branch2][#C][=C][/C][=C][C][S][C][=C][Branch1][#Branch1][C][=Ring1][Branch1][S][Ring1][Branch2][C][Branch1][N][C][=C][C][=C][Branch1][C][Mo][C][=C][Ring1][#Branch1][Branch1][N][C][=C][C][=C][Branch1][C][Mo][C][=C][Ring1][#Branch1][C][=C][C][=C][Branch1][Branch2][C][=C][Ring1][=Branch1][Ring2][Ring1][=Branch2][C][Branch1][N][C][=C][C][=C][Branch1][C][Mo][C][=C][Ring1][#Branch1][Branch1][N][C][=C][C][=C][Branch1][C][Mo][C][=C][Ring1][#Branch1][C][=C][Ring2][Ring1][Branch1][S][C][C][=C][Branch2][Ring1][=Branch2][/C][=C][\C][=Branch1][C][=O][C][=C][C][=C][C][=C][Ring1][=Branch1][C][Ring1][#Branch2][=C][Branch1][Ring1][C][#N][C][#N][S][C][Ring2][Ring1][Branch2][=Ring2][Ring1][Branch1][C][=Branch1][C][=O][C][=C][C][=C][C][=C][Ring1][=Branch1][Ring2][=Branch1][#C],{[$]c1cc2c(-c3cc(Cl)c([Cr])s3)c3sc(-c4sc([$])c5c(F)c(C(=O)O[Cr])sc45)cc3c(-c3cc(Cl)c([Cr])s3)c2s1}.N#CC(C#N)=C1/C(=C/c2cc3sc4c(c3s2)C(c2ccc([Mo])cc2)(c2ccc([Mo])cc2)c2cc3c(cc2-4)C(c2ccc([Mo])cc2)(c2ccc([Mo])cc2)c2c-3sc3cc(/C=C4\C(=O)c5ccccc5C4=C(C#N)C#N)sc23)C(=O)c2ccccc21
PBDB-T,BDCPDT-FIC,-5.297777777777778,-3.4170000000000003,1.7681818181818183,-1.8807777777777777,-5.52,-4.0,-1.5199999999999996,1.49,1:1,CB,_,25.0,MoOx,ZnO,8.12,8.1200728,0.7,19.12,60.67,Cc1ccc(-c2sc(-c3ccc(-c4cc5c(-c6ccc([Cr])s6)c6sc(C)cc6c(-c6ccc([Cr])s6)c5s4)s3)c3c2C(=O)c2c([Cr])sc([Cr])c2C3=O)s1.N#CC(C#N)=C1/C(=C/c2cc3c(s2)-c2sc4cc5c6c(sc5cc4c2C3(c2ccc([Mo])cc2)c2ccc([Mo])cc2)-c2sc(/C=C3\C(=O)c4cc(F)c(F)cc4C3=C(C#N)C#N)cc2C6(c2ccc([Mo])cc2)c2ccc([Mo])cc2)C(=O)c2cc(F)c(F)cc21,[C][C][=C][C][=C][Branch2][#Branch1][O][C][S][C][Branch2][Branch1][O][C][=C][C][=C][Branch2][Ring2][S][C][=C][C][=C][Branch1][O][C][=C][C][=C][Branch1][C][Cr][S][Ring1][=Branch1][C][S][C][Branch1][C][C][=C][C][=Ring1][=Branch1][C][Branch1][O][C][=C][C][=C][Branch1][C][Cr][S][Ring1][=Branch1][=C][Ring2][Ring1][=Branch1][S][Ring2][Ring1][=Branch2][S][Ring2][Ring1][=C][=C][C][=Ring2][Ring2][Ring1][C][=Branch1][C][=O][C][=C][Branch1][C][Cr][S][C][Branch1][C][Cr][=C][Ring1][#Branch1][C][Ring1][N][=O][S][Ring2][Branch1][Ring1].[N][#C][C][Branch1][Ring1][C][#N][=C][/C][=Branch2][=Branch2][S][=C][/C][=C][C][=C][Branch1][Ring2][S][Ring1][Branch1][C][S][C][=C][C][C][=C][Branch2][Ring2][#Branch1][S][C][=Ring1][Branch1][C][=C][Ring1][=Branch2][C][=Ring1][N][C][Ring1][S][Branch1][N][C][=C][C][=C][Branch1][C][Mo][C][=C][Ring1][#Branch1][C][=C][C][=C][Branch1][C][Mo][C][=C][Ring1][#Branch1][C][S][C][Branch2][Ring1][#C][/C][=C][\C][=Branch1][C][=O][C][=C][C][Branch1][C][F][=C][Branch1][C][F][C][=C][Ring1][Branch2][C][Ring1][N][=C][Branch1][Ring1][C][#N][C][#N][=C][C][=Ring2][Ring1][#Branch1][C][Ring2][Ring2][=C][Branch1][N][C][=C][C][=C][Branch1][C][Mo][C][=C][Ring1][#Branch1][C][=C][C][=C][Branch1][C][Mo][C][=C][Ring1][#Branch1][C][=Branch1][C][=O][C][=C][C][Branch1][C][F][=C][Branch1][C][F][C][=C][Ring1][Branch2][Ring2][#Branch1][Ring1],{[$]c1ccc(-c2sc(-c3ccc(-c4cc5c(-c6ccc([Cr])s6)c6sc([$])cc6c(-c6ccc([Cr])s6)c5s4)s3)c3c2C(=O)c2c([Cr])sc([Cr])c2C3=O)s1}.N#CC(C#N)=C1/C(=C/c2cc3c(s2)-c2sc4cc5c6c(sc5cc4c2C3(c2ccc([Mo])cc2)c2ccc([Mo])cc2)-c2sc(/C=C3\C(=O)c4cc(F)c(F)cc4C3=C(C#N)C#N)cc2C6(c2ccc([Mo])cc2)c2ccc([Mo])cc2)C(=O)c2cc(F)c(F)cc21
PBFTT,ITIC,-5.47,-3.56,1.64,-1.91,-5.574285714285715,-3.9143137254901954,-1.659971988795519,1.5857894736842106,1:1.5,CB,_,25.0,MoOx,ZnO,9.1,9.0992,0.94,16.0,60.5,CCCCCCCCOC(=O)c1sc2c(-c3cc4c(-c5cc(F)c(CC(CC)CCCC)s5)c5sc(C)cc5c(-c5cc(F)c(CC(CC)CCCC)s5)c4s3)sc(C)c2c1F.N#CC(C#N)=C1/C(=C/c2cc3sc4c(c3s2)C(c2ccc([Mo])cc2)(c2ccc([Mo])cc2)c2cc3c(cc2-4)C(c2ccc([Mo])cc2)(c2ccc([Mo])cc2)c2c-3sc3cc(/C=C4\C(=O)c5ccccc5C4=C(C#N)C#N)sc23)C(=O)c2ccccc21,[C][C][C][C][C][C][C][C][O][C][=Branch1][C][=O][C][S][C][=C][Branch2][=Branch1][#Branch2][C][=C][C][=C][Branch2][Ring1][#Branch1][C][=C][C][Branch1][C][F][=C][Branch1][O][C][C][Branch1][Ring1][C][C][C][C][C][C][S][Ring1][=C][C][S][C][Branch1][C][C][=C][C][=Ring1][=Branch1][C][Branch2][Ring1][#Branch1][C][=C][C][Branch1][C][F][=C][Branch1][O][C][C][Branch1][Ring1][C][C][C][C][C][C][S][Ring1][=C][=C][Ring2][Ring2][=Branch1][S][Ring2][Ring2][=Branch2][S][C][Branch1][C][C][=C][Ring2][Ring2][#C][C][=Ring2][Branch1][C][F].[N][#C][C][Branch1][Ring1][C][#N][=C][/C][=Branch2][=Branch2][#C][=C][/C][=C][C][S][C][=C][Branch1][#Branch1][C][=Ring1][Branch1][S][Ring1][Branch2][C][Branch1][N][C][=C][C][=C][Branch1][C][Mo][C][=C][Ring1][#Branch1][Branch1][N][C][=C][C][=C][Branch1][C][Mo][C][=C][Ring1][#Branch1][C][=C][C][=C][Branch1][Branch2][C][=C][Ring1][=Branch1][Ring2][Ring1][=Branch2][C][Branch1][N][C][=C][C][=C][Branch1][C][Mo][C][=C][Ring1][#Branch1][Branch1][N][C][=C][C][=C][Branch1][C][Mo][C][=C][Ring1][#Branch1][C][=C][Ring2][Ring1][Branch1][S][C][C][=C][Branch2][Ring1][=Branch2][/C][=C][\C][=Branch1][C][=O][C][=C][C][=C][C][=C][Ring1][=Branch1][C][Ring1][#Branch2][=C][Branch1][Ring1][C][#N][C][#N][S][C][Ring2][Ring1][Branch2][=Ring2][Ring1][Branch1][C][=Branch1][C][=O][C][=C][C][=C][C][=C][Ring1][=Branch1][Ring2][=Branch1][#C],{CCCCCCCCOC(=O)c1sc2c(-c3cc4c(-c5cc(F)c(CC(CC)CCCC)s5)c5sc([$])cc5c(-c5cc(F)c(CC(CC)CCCC)s5)c4s3)sc([$])c2c1F}.N#CC(C#N)=C1/C(=C/c2cc3sc4c(c3s2)C(c2ccc([Mo])cc2)(c2ccc([Mo])cc2)c2cc3c(cc2-4)C(c2ccc([Mo])cc2)(c2ccc([Mo])cc2)c2c-3sc3cc(/C=C4\C(=O)c5ccccc5C4=C(C#N)C#N)sc23)C(=O)c2ccccc21
PBDB-T,BDTThIT-M,-5.297777777777778,-3.4170000000000003,1.7681818181818183,-1.8807777777777777,-5.35,-3.82,-1.5299999999999998,1.53,1:1,CB,DIO,100.0,PEDOT:PSS,PDIN,12.12,12.12676164,0.942,18.03,71.4,Cc1ccc(-c2sc(-c3ccc(-c4cc5c(-c6ccc([Cr])s6)c6sc(C)cc6c(-c6ccc([Cr])s6)c5s4)s3)c3c2C(=O)c2c([Cr])sc([Cr])c2C3=O)s1.Cc1ccc2c(c1)C(=C(C#N)C#N)/C(=C/c1cc3c(s1)-c1sc4cc5c6c(sc5cc4c1C3(c1ccc([Mo])cc1)c1ccc([Mo])cc1)-c1sc(/C=C3\C(=O)c4ccc(C)cc4C3=C(C#N)C#N)cc1C6(c1ccc([Mo])cc1)c1ccc([Mo])cc1)C2=O,[C][C][=C][C][=C][Branch2][#Branch1][O][C][S][C][Branch2][Branch1][O][C][=C][C][=C][Branch2][Ring2][S][C][=C][C][=C][Branch1][O][C][=C][C][=C][Branch1][C][Cr][S][Ring1][=Branch1][C][S][C][Branch1][C][C][=C][C][=Ring1][=Branch1][C][Branch1][O][C][=C][C][=C][Branch1][C][Cr][S][Ring1][=Branch1][=C][Ring2][Ring1][=Branch1][S][Ring2][Ring1][=Branch2][S][Ring2][Ring1][=C][=C][C][=Ring2][Ring2][Ring1][C][=Branch1][C][=O][C][=C][Branch1][C][Cr][S][C][Branch1][C][Cr][=C][Ring1][#Branch1][C][Ring1][N][=O][S][Ring2][Branch1][Ring1].[C][C][=C][C][=C][C][=Branch1][Ring2][=C][Ring1][=Branch1][C][=Branch1][Branch2][=C][Branch1][Ring1][C][#N][C][#N][/C][=Branch2][=Branch2][=N][=C][/C][=C][C][=C][Branch1][Ring2][S][Ring1][Branch1][C][S][C][=C][C][C][=C][Branch2][Ring2][#Branch1][S][C][=Ring1][Branch1][C][=C][Ring1][=Branch2][C][=Ring1][N][C][Ring1][S][Branch1][N][C][=C][C][=C][Branch1][C][Mo][C][=C][Ring1][#Branch1][C][=C][C][=C][Branch1][C][Mo][C][=C][Ring1][#Branch1][C][S][C][Branch2][Ring1][N][/C][=C][\C][=Branch1][C][=O][C][=C][C][=C][Branch1][C][C][C][=C][Ring1][#Branch1][C][Ring1][O][=C][Branch1][Ring1][C][#N][C][#N][=C][C][=Ring2][Ring1][=Branch1][C][Ring2][Ring2][=N][Branch1][N][C][=C][C][=C][Branch1][C][Mo][C][=C][Ring1][#Branch1][C][=C][C][=C][Branch1][C][Mo][C][=C][Ring1][#Branch1][C][Ring2][=Branch1][P][=O],{[$]c1ccc(-c2sc(-c3ccc(-c4cc5c(-c6ccc([Cr])s6)c6sc([$])cc6c(-c6ccc([Cr])s6)c5s4)s3)c3c2C(=O)c2c([Cr])sc([Cr])c2C3=O)s1}.Cc1ccc2c(c1)C(=C(C#N)C#N)/C(=C/c1cc3c(s1)-c1sc4cc5c6c(sc5cc4c1C3(c1ccc([Mo])cc1)c1ccc([Mo])cc1)-c1sc(/C=C3\C(=O)c4ccc(C)cc4C3=C(C#N)C#N)cc1C6(c1ccc([Mo])cc1)c1ccc([Mo])cc1)C2=O