Donor,Acceptor,HOMO_D_eV,LUMO_D_eV,Eg_D_eV,Ehl_D_eV,HOMO_A_eV,LUMO_A_eV,Ehl_A_eV,Eg_A_eV,D_A_ratio_m_m,solvent,solvent_additive,annealing_temperature,hole_contact_layer,electron_contact_layer,PCE_percent,calc_PCE_percent,Voc_V,Jsc_mA_cm_pow_neg2,FF_percent,DA_SMILES,DA_SELFIES,DA_BigSMILES
PBDB-T2Cl,IDIC-4Cl,-5.51,-3.626,1.734,-1.884,-5.78,-4.02,-1.760000000000001,1.58,1:1,CB,DIO,25.0,MoOx,ZnO,9.24,9.24175867,0.83,16.21,68.69,CCCCC(CC)Cc1sc(-c2c3cc(-c4ccc(-c5sc(-c6ccc(C)s6)c6c5C(=O)c5c(CC(CC)CCCC)sc(CC(CC)CCCC)c5C6=O)s4)sc3c(-c3cc(Cl)c(CC(CC)CCCC)s3)c3cc(C)sc23)cc1Cl.N#CC(C#N)=C1/C(=C/c2cc3c(s2)-c2cc4c(cc2C3(c2ccc([Mo])cc2)c2ccc([Mo])cc2)-c2sc(/C=C3\C(=O)c5cc(Cl)c(Cl)cc5C3=C(C#N)C#N)cc2C4(c2ccc([Mo])cc2)c2ccc([Mo])cc2)C(=O)c2cc(Cl)c(Cl)cc21,[C][C][C][C][C][Branch1][Ring1][C][C][C][C][S][C][Branch2][=Branch2][O][C][=C][C][=C][Branch2][=Branch1][Branch2][C][=C][C][=C][Branch2][Branch1][=N][C][S][C][Branch1][O][C][=C][C][=C][Branch1][C][C][S][Ring1][=Branch1][=C][C][=Ring1][O][C][=Branch1][C][=O][C][=C][Branch1][O][C][C][Branch1][Ring1][C][C][C][C][C][C][S][C][Branch1][O][C][C][Branch1][Ring1][C][C][C][C][C][C][=C][Ring2][Ring1][Branch1][C][Ring2][Ring1][#Branch2][=O][S][Ring2][Ring2][=Branch2][S][C][Ring2][Ring2][=C][=C][Branch2][Ring1][#Branch1][C][=C][C][Branch1][C][Cl][=C][Branch1][O][C][C][Branch1][Ring1][C][C][C][C][C][C][S][Ring1][=C][C][C][=C][Branch1][C][C][S][C][Ring2][=Branch1][Ring2][=Ring1][=Branch1][=C][C][=Ring2][=Branch1][=Branch2][Cl].[N][#C][C][Branch1][Ring1][C][#N][=C][/C][=Branch2][=Branch2][=Branch1][=C][/C][=C][C][=C][Branch1][Ring2][S][Ring1][Branch1][C][=C][C][=C][Branch2][Ring1][S][C][=C][Ring1][=Branch1][C][Ring1][#Branch2][Branch1][N][C][=C][C][=C][Branch1][C][Mo][C][=C][Ring1][#Branch1][C][=C][C][=C][Branch1][C][Mo][C][=C][Ring1][#Branch1][C][S][C][Branch2][Ring1][#C][/C][=C][\C][=Branch1][C][=O][C][=C][C][Branch1][C][Cl][=C][Branch1][C][Cl][C][=C][Ring1][Branch2][C][Ring1][N][=C][Branch1][Ring1][C][#N][C][#N][=C][C][=Ring2][Ring1][#Branch1][C][Ring2][Ring2][O][Branch1][N][C][=C][C][=C][Branch1][C][Mo][C][=C][Ring1][#Branch1][C][=C][C][=C][Branch1][C][Mo][C][=C][Ring1][#Branch1][C][=Branch1][C][=O][C][=C][C][Branch1][C][Cl][=C][Branch1][C][Cl][C][=C][Ring1][Branch2][Ring2][=Branch1][=N],{CCCCC(CC)Cc1sc(-c2c3cc(-c4ccc(-c5sc(-c6ccc([$])s6)c6c5C(=O)c5c(CC(CC)CCCC)sc(CC(CC)CCCC)c5C6=O)s4)sc3c(-c3cc(Cl)c(CC(CC)CCCC)s3)c3cc([$])sc23)cc1Cl}.N#CC(C#N)=C1/C(=C/c2cc3c(s2)-c2cc4c(cc2C3(c2ccc([Mo])cc2)c2ccc([Mo])cc2)-c2sc(/C=C3\C(=O)c5cc(Cl)c(Cl)cc5C3=C(C#N)C#N)cc2C4(c2ccc([Mo])cc2)c2ccc([Mo])cc2)C(=O)c2cc(Cl)c(Cl)cc21
PBDB-T-BO,IT-M,-5.38,-3.63,1.75,-1.75,-5.513571428571429,-3.808,-1.705571428571429,1.604285714285714,1:1,THF,_,100.0,PEDOT:PSS,PFN-Br,10.78,10.860799,0.97,15.77,71.0,Cc1ccc(-c2sc(-c3ccc(-c4cc5c(-c6ccc([Sc])s6)c6sc(C)cc6c(-c6ccc([Sc])s6)c5s4)s3)c3c2C(=O)c2c([Cr])sc([Cr])c2C3=O)s1.Cc1ccc2c(c1)C(=C(C#N)C#N)/C(=C/c1cc3sc4c(c3s1)C(c1ccc([Mo])cc1)(c1ccc([Mo])cc1)c1cc3c(cc1-4)C(c1ccc([Mo])cc1)(c1ccc([Mo])cc1)c1c-3sc3cc(/C=C4\C(=O)c5ccc(C)cc5C4=C(C#N)C#N)sc13)C2=O,[C][C][=C][C][=C][Branch2][#Branch1][O][C][S][C][Branch2][Branch1][O][C][=C][C][=C][Branch2][Ring2][S][C][=C][C][=C][Branch1][O][C][=C][C][=C][Branch1][C][Sc][S][Ring1][=Branch1][C][S][C][Branch1][C][C][=C][C][=Ring1][=Branch1][C][Branch1][O][C][=C][C][=C][Branch1][C][Sc][S][Ring1][=Branch1][=C][Ring2][Ring1][=Branch1][S][Ring2][Ring1][=Branch2][S][Ring2][Ring1][=C][=C][C][=Ring2][Ring2][Ring1][C][=Branch1][C][=O][C][=C][Branch1][C][Cr][S][C][Branch1][C][Cr][=C][Ring1][#Branch1][C][Ring1][N][=O][S][Ring2][Branch1][Ring1].[C][C][=C][C][=C][C][=Branch1][Ring2][=C][Ring1][=Branch1][C][=Branch1][Branch2][=C][Branch1][Ring1][C][#N][C][#N][/C][=Branch2][#Branch2][C][=C][/C][=C][C][S][C][=C][Branch1][#Branch1][C][=Ring1][Branch1][S][Ring1][Branch2][C][Branch1][N][C][=C][C][=C][Branch1][C][Mo][C][=C][Ring1][#Branch1][Branch1][N][C][=C][C][=C][Branch1][C][Mo][C][=C][Ring1][#Branch1][C][=C][C][=C][Branch1][Branch2][C][=C][Ring1][=Branch1][Ring2][Ring1][=Branch2][C][Branch1][N][C][=C][C][=C][Branch1][C][Mo][C][=C][Ring1][#Branch1][Branch1][N][C][=C][C][=C][Branch1][C][Mo][C][=C][Ring1][#Branch1][C][=C][Ring2][Ring1][Branch1][S][C][C][=C][Branch2][Ring1][N][/C][=C][\C][=Branch1][C][=O][C][=C][C][=C][Branch1][C][C][C][=C][Ring1][#Branch1][C][Ring1][O][=C][Branch1][Ring1][C][#N][C][#N][S][C][Ring2][Ring1][=Branch2][=Ring2][Ring1][=Branch1][C][Ring2][=Branch1][P][=O],{[$]c1ccc(-c2sc(-c3ccc(-c4cc5c(-c6ccc([Sc])s6)c6sc([$])cc6c(-c6ccc([Sc])s6)c5s4)s3)c3c2C(=O)c2c([Cr])sc([Cr])c2C3=O)s1}.Cc1ccc2c(c1)C(=C(C#N)C#N)/C(=C/c1cc3sc4c(c3s1)C(c1ccc([Mo])cc1)(c1ccc([Mo])cc1)c1cc3c(cc1-4)C(c1ccc([Mo])cc1)(c1ccc([Mo])cc1)c1c-3sc3cc(/C=C4\C(=O)c5ccc(C)cc5C4=C(C#N)C#N)sc13)C2=O
PBDB-BzT,IT-M,-5.36,-3.61,1.75,-1.7500000000000004,-5.513571428571429,-3.808,-1.705571428571429,1.604285714285714,1:1,THF,_,100.0,PEDOT:PSS,PFN-Br,12.1,12.07584,0.96,17.97,70.0,Cc1ccc(-c2sc(-c3ccc(-c4cc5c(-c6cc7cc(B=O)ccc7s6)c6sc(C)cc6c(-c6cc7cc(B=O)ccc7s6)c5s4)s3)c3c2C(=O)c2c([Cr])sc([Cr])c2C3=O)s1.Cc1ccc2c(c1)C(=C(C#N)C#N)/C(=C/c1cc3sc4c(c3s1)C(c1ccc([Mo])cc1)(c1ccc([Mo])cc1)c1cc3c(cc1-4)C(c1ccc([Mo])cc1)(c1ccc([Mo])cc1)c1c-3sc3cc(/C=C4\C(=O)c5ccc(C)cc5C4=C(C#N)C#N)sc13)C2=O,[C][C][=C][C][=C][Branch2][Branch2][O][C][S][C][Branch2][=Branch1][O][C][=C][C][=C][Branch2][Branch1][S][C][=C][C][=C][Branch2][Ring1][C][C][=C][C][=C][C][Branch1][Ring1][B][=O][=C][C][=C][Ring1][Branch2][S][Ring1][O][C][S][C][Branch1][C][C][=C][C][=Ring1][=Branch1][C][Branch2][Ring1][C][C][=C][C][=C][C][Branch1][Ring1][B][=O][=C][C][=C][Ring1][Branch2][S][Ring1][O][=C][Ring2][Ring1][S][S][Ring2][Ring2][Ring1][S][Ring2][Ring2][Branch2][=C][C][=Ring2][Ring2][=N][C][=Branch1][C][=O][C][=C][Branch1][C][Cr][S][C][Branch1][C][Cr][=C][Ring1][#Branch1][C][Ring1][N][=O][S][Ring2][Branch1][=N].[C][C][=C][C][=C][C][=Branch1][Ring2][=C][Ring1][=Branch1][C][=Branch1][Branch2][=C][Branch1][Ring1][C][#N][C][#N][/C][=Branch2][#Branch2][C][=C][/C][=C][C][S][C][=C][Branch1][#Branch1][C][=Ring1][Branch1][S][Ring1][Branch2][C][Branch1][N][C][=C][C][=C][Branch1][C][Mo][C][=C][Ring1][#Branch1][Branch1][N][C][=C][C][=C][Branch1][C][Mo][C][=C][Ring1][#Branch1][C][=C][C][=C][Branch1][Branch2][C][=C][Ring1][=Branch1][Ring2][Ring1][=Branch2][C][Branch1][N][C][=C][C][=C][Branch1][C][Mo][C][=C][Ring1][#Branch1][Branch1][N][C][=C][C][=C][Branch1][C][Mo][C][=C][Ring1][#Branch1][C][=C][Ring2][Ring1][Branch1][S][C][C][=C][Branch2][Ring1][N][/C][=C][\C][=Branch1][C][=O][C][=C][C][=C][Branch1][C][C][C][=C][Ring1][#Branch1][C][Ring1][O][=C][Branch1][Ring1][C][#N][C][#N][S][C][Ring2][Ring1][=Branch2][=Ring2][Ring1][=Branch1][C][Ring2][=Branch1][P][=O],{[$]c1ccc(-c2sc(-c3ccc(-c4cc5c(-c6cc7cc(B=O)ccc7s6)c6sc([$])cc6c(-c6cc7cc(B=O)ccc7s6)c5s4)s3)c3c2C(=O)c2c([Cr])sc([Cr])c2C3=O)s1}.Cc1ccc2c(c1)C(=C(C#N)C#N)/C(=C/c1cc3sc4c(c3s1)C(c1ccc([Mo])cc1)(c1ccc([Mo])cc1)c1cc3c(cc1-4)C(c1ccc([Mo])cc1)(c1ccc([Mo])cc1)c1c-3sc3cc(/C=C4\C(=O)c5ccc(C)cc5C4=C(C#N)C#N)sc13)C2=O
PBDB-T,IDT-O-IC,-5.297777777777778,-3.4170000000000003,1.7681818181818183,-1.8807777777777777,-5.7,-3.79,-1.91,1.69,1:1.2,o-DCB,_,25.0,MoOx,ZnO,4.74,4.71108,0.83,10.32,55.0,Cc1ccc(-c2sc(-c3ccc(-c4cc5c(-c6ccc([Cr])s6)c6sc(C)cc6c(-c6ccc([Cr])s6)c5s4)s3)c3c2C(=O)c2c([Cr])sc([Cr])c2C3=O)s1.N#CC(C#N)=C1/C(=C/c2cc3c(s2)-c2cc4c(cc2C3(c2ccc(O[Mo])cc2)c2ccc(O[Mo])cc2)-c2sc(/C=C3\C(=O)c5ccccc5C3=C(C#N)C#N)cc2C4(c2ccc(O[Mo])cc2)c2ccc(O[Mo])cc2)C(=O)c2ccccc21,[C][C][=C][C][=C][Branch2][#Branch1][O][C][S][C][Branch2][Branch1][O][C][=C][C][=C][Branch2][Ring2][S][C][=C][C][=C][Branch1][O][C][=C][C][=C][Branch1][C][Cr][S][Ring1][=Branch1][C][S][C][Branch1][C][C][=C][C][=Ring1][=Branch1][C][Branch1][O][C][=C][C][=C][Branch1][C][Cr][S][Ring1][=Branch1][=C][Ring2][Ring1][=Branch1][S][Ring2][Ring1][=Branch2][S][Ring2][Ring1][=C][=C][C][=Ring2][Ring2][Ring1][C][=Branch1][C][=O][C][=C][Branch1][C][Cr][S][C][Branch1][C][Cr][=C][Ring1][#Branch1][C][Ring1][N][=O][S][Ring2][Branch1][Ring1].[N][#C][C][Branch1][Ring1][C][#N][=C][/C][=Branch2][=Branch2][Ring2][=C][/C][=C][C][=C][Branch1][Ring2][S][Ring1][Branch1][C][=C][C][=C][Branch2][Ring2][C][C][=C][Ring1][=Branch1][C][Ring1][#Branch2][Branch1][=N][C][=C][C][=C][Branch1][Ring1][O][Mo][C][=C][Ring1][Branch2][C][=C][C][=C][Branch1][Ring1][O][Mo][C][=C][Ring1][Branch2][C][S][C][Branch2][Ring1][=Branch2][/C][=C][\C][=Branch1][C][=O][C][=C][C][=C][C][=C][Ring1][=Branch1][C][Ring1][#Branch2][=C][Branch1][Ring1][C][#N][C][#N][=C][C][=Ring2][Ring1][Branch1][C][Ring2][Ring2][O][Branch1][=N][C][=C][C][=C][Branch1][Ring1][O][Mo][C][=C][Ring1][Branch2][C][=C][C][=C][Branch1][Ring1][O][Mo][C][=C][Ring1][Branch2][C][=Branch1][C][=O][C][=C][C][=C][C][=C][Ring1][=Branch1][Ring2][=Branch1][=N],{[$]c1ccc(-c2sc(-c3ccc(-c4cc5c(-c6ccc([Cr])s6)c6sc([$])cc6c(-c6ccc([Cr])s6)c5s4)s3)c3c2C(=O)c2c([Cr])sc([Cr])c2C3=O)s1}.N#CC(C#N)=C1/C(=C/c2cc3c(s2)-c2cc4c(cc2C3(c2ccc(O[Mo])cc2)c2ccc(O[Mo])cc2)-c2sc(/C=C3\C(=O)c5ccccc5C3=C(C#N)C#N)cc2C4(c2ccc(O[Mo])cc2)c2ccc(O[Mo])cc2)C(=O)c2ccccc21
PBDB-T,spiro-IDT-O-IC,-5.297777777777778,-3.4170000000000003,1.7681818181818183,-1.8807777777777777,-5.68,-3.79,-1.89,1.66,1:1.8,o-DCB,_,25.0,MoOx,ZnO,6.23,6.223392,0.84,11.76,63.0,Cc1ccc(-c2sc(-c3ccc(-c4cc5c(-c6ccc([Cr])s6)c6sc(C)cc6c(-c6ccc([Cr])s6)c5s4)s3)c3c2C(=O)c2c([Cr])sc([Cr])c2C3=O)s1.N#CC(C#N)=C1/C(=C/c2cc3c(s2)-c2cc4c(cc2C32c3ccc(O[Mo])cc3-c3cc(O[Mo])ccc32)-c2sc(/C=C3\C(=O)c5ccccc5C3=C(C#N)C#N)cc2C42c3ccc(O[Mo])cc3-c3cc(O[Mo])ccc32)C(=O)c2ccccc21,[C][C][=C][C][=C][Branch2][#Branch1][O][C][S][C][Branch2][Branch1][O][C][=C][C][=C][Branch2][Ring2][S][C][=C][C][=C][Branch1][O][C][=C][C][=C][Branch1][C][Cr][S][Ring1][=Branch1][C][S][C][Branch1][C][C][=C][C][=Ring1][=Branch1][C][Branch1][O][C][=C][C][=C][Branch1][C][Cr][S][Ring1][=Branch1][=C][Ring2][Ring1][=Branch1][S][Ring2][Ring1][=Branch2][S][Ring2][Ring1][=C][=C][C][=Ring2][Ring2][Ring1][C][=Branch1][C][=O][C][=C][Branch1][C][Cr][S][C][Branch1][C][Cr][=C][Ring1][#Branch1][C][Ring1][N][=O][S][Ring2][Branch1][Ring1].[N][#C][C][Branch1][Ring1][C][#N][=C][/C][=Branch2][=Branch2][Ring2][=C][/C][=C][C][=C][Branch1][Ring2][S][Ring1][Branch1][C][=C][C][=C][Branch2][Ring2][C][C][=C][Ring1][=Branch1][C][Ring1][#Branch2][C][=C][C][=C][Branch1][Ring1][O][Mo][C][=C][Ring1][Branch2][C][=C][C][Branch1][Ring1][O][Mo][=C][C][=C][Ring1][Branch2][Ring1][P][C][S][C][Branch2][Ring1][=Branch2][/C][=C][\C][=Branch1][C][=O][C][=C][C][=C][C][=C][Ring1][=Branch1][C][Ring1][#Branch2][=C][Branch1][Ring1][C][#N][C][#N][=C][C][=Ring2][Ring1][Branch1][C][Ring2][Ring2][O][C][=C][C][=C][Branch1][Ring1][O][Mo][C][=C][Ring1][Branch2][C][=C][C][Branch1][Ring1][O][Mo][=C][C][=C][Ring1][Branch2][Ring1][P][C][=Branch1][C][=O][C][=C][C][=C][C][=C][Ring1][=Branch1][Ring2][=Branch1][=N],{[$]c1ccc(-c2sc(-c3ccc(-c4cc5c(-c6ccc([Cr])s6)c6sc([$])cc6c(-c6ccc([Cr])s6)c5s4)s3)c3c2C(=O)c2c([Cr])sc([Cr])c2C3=O)s1}.N#CC(C#N)=C1/C(=C/c2cc3c(s2)-c2cc4c(cc2C32c3ccc(O[Mo])cc3-c3cc(O[Mo])ccc32)-c2sc(/C=C3\C(=O)c5ccccc5C3=C(C#N)C#N)cc2C42c3ccc(O[Mo])cc3-c3cc(O[Mo])ccc32)C(=O)c2ccccc21
PBDB-T,FICBF-O,-5.297777777777778,-3.4170000000000003,1.7681818181818183,-1.8807777777777777,-5.72,-3.85,-1.87,1.81,1:1,CB,_,25.0,PEDOT:PSS,PDINO,5.54,5.540688,0.96,10.59,54.5,Cc1ccc(-c2sc(-c3ccc(-c4cc5c(-c6ccc([Cr])s6)c6sc(C)cc6c(-c6ccc([Cr])s6)c5s4)s3)c3c2C(=O)c2c([Cr])sc([Cr])c2C3=O)s1.N#CC(C#N)=C1/C(=C/c2cc([Ti])c(-c3ccc4c(c3)C([Ti])([Ti])c3cc5c(cc3-4)C([Ti])([Ti])c3cc(-c4sc(/C=C6\C(=O)c7cc(F)c(F)cc7C6=C(C#N)C#N)cc4[Ti])ccc3-5)s2)C(=O)c2cc(F)c(F)cc21,[C][C][=C][C][=C][Branch2][#Branch1][O][C][S][C][Branch2][Branch1][O][C][=C][C][=C][Branch2][Ring2][S][C][=C][C][=C][Branch1][O][C][=C][C][=C][Branch1][C][Cr][S][Ring1][=Branch1][C][S][C][Branch1][C][C][=C][C][=Ring1][=Branch1][C][Branch1][O][C][=C][C][=C][Branch1][C][Cr][S][Ring1][=Branch1][=C][Ring2][Ring1][=Branch1][S][Ring2][Ring1][=Branch2][S][Ring2][Ring1][=C][=C][C][=Ring2][Ring2][Ring1][C][=Branch1][C][=O][C][=C][Branch1][C][Cr][S][C][Branch1][C][Cr][=C][Ring1][#Branch1][C][Ring1][N][=O][S][Ring2][Branch1][Ring1].[N][#C][C][Branch1][Ring1][C][#N][=C][/C][=Branch2][Branch2][=N][=C][/C][=C][C][Branch1][C][Ti][=C][Branch2][#Branch1][=C][C][=C][C][=C][C][=Branch1][Ring2][=C][Ring1][=Branch1][C][Branch1][C][Ti][Branch1][C][Ti][C][=C][C][=C][Branch1][#Branch1][C][=C][Ring1][=Branch1][Ring1][N][C][Branch1][C][Ti][Branch1][C][Ti][C][=C][C][Branch2][Ring2][O][C][S][C][Branch2][Ring1][#C][/C][=C][\C][=Branch1][C][=O][C][=C][C][Branch1][C][F][=C][Branch1][C][F][C][=C][Ring1][Branch2][C][Ring1][N][=C][Branch1][Ring1][C][#N][C][#N][=C][C][=Ring2][Ring1][#Branch1][Ti][=C][C][=C][Ring2][Ring1][=C][Ring2][Ring2][Branch1][S][Ring2][Branch1][=Branch1][C][=Branch1][C][=O][C][=C][C][Branch1][C][F][=C][Branch1][C][F][C][=C][Ring1][Branch2][Ring2][=Branch1][Ring1],{[$]c1ccc(-c2sc(-c3ccc(-c4cc5c(-c6ccc([Cr])s6)c6sc([$])cc6c(-c6ccc([Cr])s6)c5s4)s3)c3c2C(=O)c2c([Cr])sc([Cr])c2C3=O)s1}.N#CC(C#N)=C1/C(=C/c2cc([Ti])c(-c3ccc4c(c3)C([Ti])([Ti])c3cc5c(cc3-4)C([Ti])([Ti])c3cc(-c4sc(/C=C6\C(=O)c7cc(F)c(F)cc7C6=C(C#N)C#N)cc4[Ti])ccc3-5)s2)C(=O)c2cc(F)c(F)cc21
PBDB-T,FICBF,-5.297777777777778,-3.4170000000000003,1.7681818181818183,-1.8807777777777777,-5.66,-3.88,-1.7800000000000002,1.72,1:1,CB,_,80.0,PEDOT:PSS,PDINO,7.41,7.408659,0.87,12.71,67.0,Cc1ccc(-c2sc(-c3ccc(-c4cc5c(-c6ccc([Cr])s6)c6sc(C)cc6c(-c6ccc([Cr])s6)c5s4)s3)c3c2C(=O)c2c([Cr])sc([Cr])c2C3=O)s1.N#CC(C#N)=C1/C(=C/c2ccc(-c3ccc4c(c3)C([Ti])([Ti])c3cc5c(cc3-4)C([Ti])([Ti])c3cc(-c4ccc(/C=C6\C(=O)c7cc(F)c(F)cc7C6=C(C#N)C#N)s4)ccc3-5)s2)C(=O)c2cc(F)c(F)cc21,[C][C][=C][C][=C][Branch2][#Branch1][O][C][S][C][Branch2][Branch1][O][C][=C][C][=C][Branch2][Ring2][S][C][=C][C][=C][Branch1][O][C][=C][C][=C][Branch1][C][Cr][S][Ring1][=Branch1][C][S][C][Branch1][C][C][=C][C][=Ring1][=Branch1][C][Branch1][O][C][=C][C][=C][Branch1][C][Cr][S][Ring1][=Branch1][=C][Ring2][Ring1][=Branch1][S][Ring2][Ring1][=Branch2][S][Ring2][Ring1][=C][=C][C][=Ring2][Ring2][Ring1][C][=Branch1][C][=O][C][=C][Branch1][C][Cr][S][C][Branch1][C][Cr][=C][Ring1][#Branch1][C][Ring1][N][=O][S][Ring2][Branch1][Ring1].[N][#C][C][Branch1][Ring1][C][#N][=C][/C][=Branch2][Branch2][=Branch2][=C][/C][=C][C][=C][Branch2][#Branch1][=N][C][=C][C][=C][C][=Branch1][Ring2][=C][Ring1][=Branch1][C][Branch1][C][Ti][Branch1][C][Ti][C][=C][C][=C][Branch1][#Branch1][C][=C][Ring1][=Branch1][Ring1][N][C][Branch1][C][Ti][Branch1][C][Ti][C][=C][C][Branch2][Ring2][#Branch2][C][=C][C][=C][Branch2][Ring1][#C][/C][=C][\C][=Branch1][C][=O][C][=C][C][Branch1][C][F][=C][Branch1][C][F][C][=C][Ring1][Branch2][C][Ring1][N][=C][Branch1][Ring1][C][#N][C][#N][S][Ring2][Ring1][#Branch1][=C][C][=C][Ring2][Ring1][=N][Ring2][Ring2][Ring2][S][Ring2][Branch1][Ring2][C][=Branch1][C][=O][C][=C][C][Branch1][C][F][=C][Branch1][C][F][C][=C][Ring1][Branch2][Ring2][Branch1][P],{[$]c1ccc(-c2sc(-c3ccc(-c4cc5c(-c6ccc([Cr])s6)c6sc([$])cc6c(-c6ccc([Cr])s6)c5s4)s3)c3c2C(=O)c2c([Cr])sc([Cr])c2C3=O)s1}.N#CC(C#N)=C1/C(=C/c2ccc(-c3ccc4c(c3)C([Ti])([Ti])c3cc5c(cc3-4)C([Ti])([Ti])c3cc(-c4ccc(/C=C6\C(=O)c7cc(F)c(F)cc7C6=C(C#N)C#N)s4)ccc3-5)s2)C(=O)c2cc(F)c(F)cc21
PBT1-EH,IDTCN,-5.43,-3.43,1.84,-2.0,-5.890000000000001,-3.93,-1.9600000000000004,1.66,1:1,CF,_,100.0,PEDOT:PSS,ZrAcAc,8.69,8.5394088,0.93,13.08,70.2,Cc1ccc(-c2sc(-c3ccc(-c4cc5c(-c6ccc(S[Cr])s6)c6sc(C)cc6c(-c6ccc(S[Cr])s6)c5s4)s3)c3c2C(=O)c2c([Co])sc([Co])c2C3=O)s1.N#CC(C#N)=C1/C(=C/c2cc3c(s2)-c2cc4c(cc2C3(c2ccc([Mo])cc2)c2ccc([Mo])cc2)-c2sc(/C=C3\C(=O)c5cscc5C3=C(C#N)C#N)cc2C4(c2ccc([Mo])cc2)c2ccc([Mo])cc2)C(=O)c2cscc21,[C][C][=C][C][=C][Branch2][#Branch1][=N][C][S][C][Branch2][Branch1][=N][C][=C][C][=C][Branch2][Branch1][C][C][=C][C][=C][Branch1][N][C][=C][C][=C][Branch1][Ring1][S][Cr][S][Ring1][#Branch1][C][S][C][Branch1][C][C][=C][C][=Ring1][=Branch1][C][Branch1][N][C][=C][C][=C][Branch1][Ring1][S][Cr][S][Ring1][#Branch1][=C][Ring2][Ring1][Branch2][S][Ring2][Ring1][O][S][Ring2][Ring1][S][=C][C][=Ring2][Ring2][Branch1][C][=Branch1][C][=O][C][=C][Branch1][C][Co][S][C][Branch1][C][Co][=C][Ring1][#Branch1][C][Ring1][N][=O][S][Ring2][Branch1][Branch1].[N][#C][C][Branch1][Ring1][C][#N][=C][/C][=Branch2][Branch2][#C][=C][/C][=C][C][=C][Branch1][Ring2][S][Ring1][Branch1][C][=C][C][=C][Branch2][Ring1][S][C][=C][Ring1][=Branch1][C][Ring1][#Branch2][Branch1][N][C][=C][C][=C][Branch1][C][Mo][C][=C][Ring1][#Branch1][C][=C][C][=C][Branch1][C][Mo][C][=C][Ring1][#Branch1][C][S][C][Branch2][Ring1][Branch2][/C][=C][\C][=Branch1][C][=O][C][=C][S][C][=C][Ring1][Branch1][C][Ring1][=Branch2][=C][Branch1][Ring1][C][#N][C][#N][=C][C][=Ring2][Ring1][Ring2][C][Ring2][Ring2][Branch2][Branch1][N][C][=C][C][=C][Branch1][C][Mo][C][=C][Ring1][#Branch1][C][=C][C][=C][Branch1][C][Mo][C][=C][Ring1][#Branch1][C][=Branch1][C][=O][C][=C][S][C][=C][Ring1][Branch1][Ring2][=Branch1][#Branch1],{[$]c1ccc(-c2sc(-c3ccc(-c4cc5c(-c6ccc(S[Cr])s6)c6sc([$])cc6c(-c6ccc(S[Cr])s6)c5s4)s3)c3c2C(=O)c2c([Co])sc([Co])c2C3=O)s1}.N#CC(C#N)=C1/C(=C/c2cc3c(s2)-c2cc4c(cc2C3(c2ccc([Mo])cc2)c2ccc([Mo])cc2)-c2sc(/C=C3\C(=O)c5cscc5C3=C(C#N)C#N)cc2C4(c2ccc([Mo])cc2)c2ccc([Mo])cc2)C(=O)c2cscc21
PBDB-T,IDT-T,-5.297777777777778,-3.4170000000000003,1.7681818181818183,-1.8807777777777777,-5.4625,-3.9225,-1.5400000000000005,1.545,1:1,CB,_,25.0,MoOx,ZnO,6.36,6.362598704,0.952,11.21,59.62,Cc1ccc(-c2sc(-c3ccc(-c4cc5c(-c6ccc([Cr])s6)c6sc(C)cc6c(-c6ccc([Cr])s6)c5s4)s3)c3c2C(=O)c2c([Cr])sc([Cr])c2C3=O)s1.N#CC(C#N)=C1/C(=C/c2ccc(-c3cc4c(s3)-c3cc5c(cc3C4(c3ccc([Mo])cc3)c3ccc([Mo])cc3)-c3sc(-c4ccc(/C=C6\C(=O)c7ccccc7C6=C(C#N)C#N)s4)cc3C5(c3ccc([Mo])cc3)c3ccc([Mo])cc3)s2)C(=O)c2ccccc21,[C][C][=C][C][=C][Branch2][#Branch1][O][C][S][C][Branch2][Branch1][O][C][=C][C][=C][Branch2][Ring2][S][C][=C][C][=C][Branch1][O][C][=C][C][=C][Branch1][C][Cr][S][Ring1][=Branch1][C][S][C][Branch1][C][C][=C][C][=Ring1][=Branch1][C][Branch1][O][C][=C][C][=C][Branch1][C][Cr][S][Ring1][=Branch1][=C][Ring2][Ring1][=Branch1][S][Ring2][Ring1][=Branch2][S][Ring2][Ring1][=C][=C][C][=Ring2][Ring2][Ring1][C][=Branch1][C][=O][C][=C][Branch1][C][Cr][S][C][Branch1][C][Cr][=C][Ring1][#Branch1][C][Ring1][N][=O][S][Ring2][Branch1][Ring1].[N][#C][C][Branch1][Ring1][C][#N][=C][/C][=Branch2][#Branch2][=Branch1][=C][/C][=C][C][=C][Branch2][=Branch2][#Branch2][C][=C][C][=C][Branch1][Ring2][S][Ring1][Branch1][C][=C][C][=C][Branch2][Ring1][S][C][=C][Ring1][=Branch1][C][Ring1][#Branch2][Branch1][N][C][=C][C][=C][Branch1][C][Mo][C][=C][Ring1][#Branch1][C][=C][C][=C][Branch1][C][Mo][C][=C][Ring1][#Branch1][C][S][C][Branch2][Ring2][Ring2][C][=C][C][=C][Branch2][Ring1][=Branch2][/C][=C][\C][=Branch1][C][=O][C][=C][C][=C][C][=C][Ring1][=Branch1][C][Ring1][#Branch2][=C][Branch1][Ring1][C][#N][C][#N][S][Ring2][Ring1][Branch1][=C][C][=Ring2][Ring1][#Branch2][C][Ring2][Ring2][=C][Branch1][N][C][=C][C][=C][Branch1][C][Mo][C][=C][Ring1][#Branch1][C][=C][C][=C][Branch1][C][Mo][C][=C][Ring1][#Branch1][S][Ring2][=Branch1][Branch2][C][=Branch1][C][=O][C][=C][C][=C][C][=C][Ring1][=Branch1][Ring2][#Branch1][Ring1],{[$]c1ccc(-c2sc(-c3ccc(-c4cc5c(-c6ccc([Cr])s6)c6sc([$])cc6c(-c6ccc([Cr])s6)c5s4)s3)c3c2C(=O)c2c([Cr])sc([Cr])c2C3=O)s1}.N#CC(C#N)=C1/C(=C/c2ccc(-c3cc4c(s3)-c3cc5c(cc3C4(c3ccc([Mo])cc3)c3ccc([Mo])cc3)-c3sc(-c4ccc(/C=C6\C(=O)c7ccccc7C6=C(C#N)C#N)s4)cc3C5(c3ccc([Mo])cc3)c3ccc([Mo])cc3)s2)C(=O)c2ccccc21