Donor,Acceptor,HOMO_D_eV,LUMO_D_eV,HOMO_A_eV,LUMO_A_eV,D_A_ratio_m_m,solvent,solvent_additive,annealing_temperature,hole_contact_layer,electron_contact_layer,PCE_percent,calc_PCE_percent,Voc_V,Jsc_mA_cm_pow_neg2,FF_percent,DA_SMILES,DA_SELFIES,DA_BigSMILES
J71,ITCF,-5.353333333333333,-3.4318181818181825,-5.59,-3.95,1.0,CF,_,100.0,PEDOT:PSS,ZrAcAc,13.25,13.25,0.91,18.48,78.8,CCCCCCCCC(CCCCCC)Cn1nc2c(-c3ccc(C)s3)c(F)c(F)c(-c3ccc(-c4cc5c(-c6ccc([Si](CCC)(CCC)CCC)s6)c6sc(C)cc6c(-c6ccc([Si](CCC)(CCC)CCC)s6)c5s4)s3)c2n1.CCCCCCc1ccc(C2(c3ccc(CCCCCC)cc3)c3cc4c(cc3-c3sc5cc(/C=C6\C(=O)c7cc(F)c(C)cc7C6=C(C#N)C#N)sc5c32)C(c2ccc(CCCCCC)cc2)(c2ccc(CCCCCC)cc2)c2c-4sc3cc(/C=C4\C(=O)c5cc(F)c(C)cc5C4=C(C#N)C#N)sc23)cc1,[C][C][C][C][C][C][C][C][C][Branch1][#Branch1][C][C][C][C][C][C][C][N][N][=C][C][Branch1][O][C][=C][C][=C][Branch1][C][C][S][Ring1][=Branch1][=C][Branch1][C][F][C][Branch1][C][F][=C][Branch2][#Branch1][#Branch1][C][=C][C][=C][Branch2][=Branch1][N][C][=C][C][=C][Branch2][Ring1][Branch2][C][=C][C][=C][Branch1][#C][Si][Branch1][Ring2][C][C][C][Branch1][Ring2][C][C][C][C][C][C][S][Ring1][#C][C][S][C][Branch1][C][C][=C][C][=Ring1][=Branch1][C][Branch2][Ring1][Branch2][C][=C][C][=C][Branch1][#C][Si][Branch1][Ring2][C][C][C][Branch1][Ring2][C][C][C][C][C][C][S][Ring1][#C][=C][Ring2][Ring2][Branch2][S][Ring2][Ring2][O][S][Ring2][Ring2][S][C][Ring2][Branch1][=C][=N][Ring2][Branch1][P].[C][C][C][C][C][C][C][=C][C][=C][Branch2][N][Branch2][C][Branch1][P][C][=C][C][=C][Branch1][#Branch1][C][C][C][C][C][C][C][=C][Ring1][N][C][=C][C][=C][Branch2][Branch1][#Branch1][C][=C][Ring1][=Branch1][C][S][C][C][=C][Branch2][Ring1][#C][/C][=C][\C][=Branch1][C][=O][C][=C][C][Branch1][C][F][=C][Branch1][C][C][C][=C][Ring1][Branch2][C][Ring1][N][=C][Branch1][Ring1][C][#N][C][#N][S][C][=Ring2][Ring1][#Branch1][C][=Ring2][Ring1][#Branch2][Ring2][Ring2][=N][C][Branch1][P][C][=C][C][=C][Branch1][#Branch1][C][C][C][C][C][C][C][=C][Ring1][N][Branch1][P][C][=C][C][=C][Branch1][#Branch1][C][C][C][C][C][C][C][=C][Ring1][N][C][=C][Ring2][Branch1][=Branch2][S][C][C][=C][Branch2][Ring1][#C][/C][=C][\C][=Branch1][C][=O][C][=C][C][Branch1][C][F][=C][Branch1][C][C][C][=C][Ring1][Branch2][C][Ring1][N][=C][Branch1][Ring1][C][#N][C][#N][S][C][Ring2][Ring1][#Branch2][=Ring2][Ring1][#Branch1][C][=C][Ring2][Branch2][=Branch1],{CCCCCCCCC(CCCCCC)Cn1nc2c(-c3ccc([$])s3)c(F)c(F)c(-c3ccc(-c4cc5c(-c6ccc([Si](CCC)(CCC)CCC)s6)c6sc([$])cc6c(-c6ccc([Si](CCC)(CCC)CCC)s6)c5s4)s3)c2n1}.CCCCCCc1ccc(C2(c3ccc(CCCCCC)cc3)c3cc4c(cc3-c3sc5cc(/C=C6\C(=O)c7cc(F)c(C)cc7C6=C(C#N)C#N)sc5c32)C(c2ccc(CCCCCC)cc2)(c2ccc(CCCCCC)cc2)c2c-4sc3cc(/C=C4\C(=O)c5cc(F)c(C)cc5C4=C(C#N)C#N)sc23)cc1
J71,IT-4F,-5.353333333333333,-3.4318181818181825,-5.66875,-4.060416666666667,1.0,CF,_,100.0,PEDOT:PSS,ZrAcAc,11.66,11.67,0.803,19.58,74.2,CCCCCCCCC(CCCCCC)Cn1nc2c(-c3ccc(C)s3)c(F)c(F)c(-c3ccc(-c4cc5c(-c6ccc([Si](CCC)(CCC)CCC)s6)c6sc(C)cc6c(-c6ccc([Si](CCC)(CCC)CCC)s6)c5s4)s3)c2n1.CCCCCCc1ccc(C2(c3ccc(CCCCCC)cc3)c3cc4c(cc3-c3sc5cc(/C=C6\C(=O)c7cc(F)c(F)cc7C6=C(C#N)C#N)sc5c32)C(c2ccc(CCCCCC)cc2)(c2ccc(CCCCCC)cc2)c2c-4sc3cc(/C=C4\C(=O)c5cc(F)c(F)cc5C4=C(C#N)C#N)sc23)cc1,[C][C][C][C][C][C][C][C][C][Branch1][#Branch1][C][C][C][C][C][C][C][N][N][=C][C][Branch1][O][C][=C][C][=C][Branch1][C][C][S][Ring1][=Branch1][=C][Branch1][C][F][C][Branch1][C][F][=C][Branch2][#Branch1][#Branch1][C][=C][C][=C][Branch2][=Branch1][N][C][=C][C][=C][Branch2][Ring1][Branch2][C][=C][C][=C][Branch1][#C][Si][Branch1][Ring2][C][C][C][Branch1][Ring2][C][C][C][C][C][C][S][Ring1][#C][C][S][C][Branch1][C][C][=C][C][=Ring1][=Branch1][C][Branch2][Ring1][Branch2][C][=C][C][=C][Branch1][#C][Si][Branch1][Ring2][C][C][C][Branch1][Ring2][C][C][C][C][C][C][S][Ring1][#C][=C][Ring2][Ring2][Branch2][S][Ring2][Ring2][O][S][Ring2][Ring2][S][C][Ring2][Branch1][=C][=N][Ring2][Branch1][P].[C][C][C][C][C][C][C][=C][C][=C][Branch2][N][Branch2][C][Branch1][P][C][=C][C][=C][Branch1][#Branch1][C][C][C][C][C][C][C][=C][Ring1][N][C][=C][C][=C][Branch2][Branch1][#Branch1][C][=C][Ring1][=Branch1][C][S][C][C][=C][Branch2][Ring1][#C][/C][=C][\C][=Branch1][C][=O][C][=C][C][Branch1][C][F][=C][Branch1][C][F][C][=C][Ring1][Branch2][C][Ring1][N][=C][Branch1][Ring1][C][#N][C][#N][S][C][=Ring2][Ring1][#Branch1][C][=Ring2][Ring1][#Branch2][Ring2][Ring2][=N][C][Branch1][P][C][=C][C][=C][Branch1][#Branch1][C][C][C][C][C][C][C][=C][Ring1][N][Branch1][P][C][=C][C][=C][Branch1][#Branch1][C][C][C][C][C][C][C][=C][Ring1][N][C][=C][Ring2][Branch1][=Branch2][S][C][C][=C][Branch2][Ring1][#C][/C][=C][\C][=Branch1][C][=O][C][=C][C][Branch1][C][F][=C][Branch1][C][F][C][=C][Ring1][Branch2][C][Ring1][N][=C][Branch1][Ring1][C][#N][C][#N][S][C][Ring2][Ring1][#Branch2][=Ring2][Ring1][#Branch1][C][=C][Ring2][Branch2][=Branch1],{CCCCCCCCC(CCCCCC)Cn1nc2c(-c3ccc([$])s3)c(F)c(F)c(-c3ccc(-c4cc5c(-c6ccc([Si](CCC)(CCC)CCC)s6)c6sc([$])cc6c(-c6ccc([Si](CCC)(CCC)CCC)s6)c5s4)s3)c2n1}.CCCCCCc1ccc(C2(c3ccc(CCCCCC)cc3)c3cc4c(cc3-c3sc5cc(/C=C6\C(=O)c7cc(F)c(F)cc7C6=C(C#N)C#N)sc5c32)C(c2ccc(CCCCCC)cc2)(c2ccc(CCCCCC)cc2)c2c-4sc3cc(/C=C4\C(=O)c5cc(F)c(F)cc5C4=C(C#N)C#N)sc23)cc1
2TC-TT-BDTFT,m-ITIC,-5.45,-3.5,-5.526666666666667,-3.8515384615384622,1.0,o-DCB,_,120.0,PEDOT:PSS,PDINO,9.65,9.59,1.06,15.25,59.31,CCCCCCC(CCCC)COC(=O)c1cc(C)sc1-c1cc2sc(-c3sc(-c4cc5c(-c6cc(F)c(CC(CC)CCCC)s6)c6sc(C)cc6c(-c6cc(F)c(CC(CC)CCCC)s6)c5s4)cc3C(=O)OCC(CCCC)CCCCCC)cc2s1.CCCCCCc1cccc(C2(c3cccc(CCCCCC)c3)c3cc4c(cc3-c3sc5cc(/C=C6\C(=O)c7ccccc7C6=C(C#N)C#N)sc5c32)C(c2cccc(CCCCCC)c2)(c2cccc(CCCCCC)c2)c2c-4sc3cc(/C=C4\C(=O)c5ccccc5C4=C(C#N)C#N)sc23)c1,[C][C][C][C][C][C][C][Branch1][Branch1][C][C][C][C][C][O][C][=Branch1][C][=O][C][C][=C][Branch1][C][C][S][C][=Ring1][=Branch1][C][=C][C][S][C][Branch2][Branch2][Branch2][C][S][C][Branch2][=Branch1][#Branch2][C][=C][C][=C][Branch2][Ring1][#Branch1][C][=C][C][Branch1][C][F][=C][Branch1][O][C][C][Branch1][Ring1][C][C][C][C][C][C][S][Ring1][=C][C][S][C][Branch1][C][C][=C][C][=Ring1][=Branch1][C][Branch2][Ring1][#Branch1][C][=C][C][Branch1][C][F][=C][Branch1][O][C][C][Branch1][Ring1][C][C][C][C][C][C][S][Ring1][=C][=C][Ring2][Ring2][=Branch1][S][Ring2][Ring2][=Branch2][=C][C][=Ring2][Ring2][=C][C][=Branch1][C][=O][O][C][C][Branch1][Branch1][C][C][C][C][C][C][C][C][C][C][=C][C][=Ring2][=Branch1][C][S][Ring2][=Branch1][Branch1].[C][C][C][C][C][C][C][=C][C][=C][C][Branch2][O][N][C][Branch1][P][C][=C][C][=C][C][Branch1][#Branch1][C][C][C][C][C][C][=C][Ring1][N][C][=C][C][=C][Branch2][Ring2][P][C][=C][Ring1][=Branch1][C][S][C][C][=C][Branch2][Ring1][=Branch2][/C][=C][\C][=Branch1][C][=O][C][=C][C][=C][C][=C][Ring1][=Branch1][C][Ring1][#Branch2][=C][Branch1][Ring1][C][#N][C][#N][S][C][=Ring2][Ring1][Branch1][C][=Ring2][Ring1][Branch2][Ring2][Ring2][O][C][Branch1][P][C][=C][C][=C][C][Branch1][#Branch1][C][C][C][C][C][C][=C][Ring1][N][Branch1][P][C][=C][C][=C][C][Branch1][#Branch1][C][C][C][C][C][C][=C][Ring1][N][C][=C][Ring2][Branch1][#Branch1][S][C][C][=C][Branch2][Ring1][=Branch2][/C][=C][\C][=Branch1][C][=O][C][=C][C][=C][C][=C][Ring1][=Branch1][C][Ring1][#Branch2][=C][Branch1][Ring1][C][#N][C][#N][S][C][Ring2][Ring1][Branch2][=Ring2][Ring1][Branch1][=C][Ring2][Branch2][C],{CCCCCCC(CCCC)COC(=O)c1cc([$])sc1-c1cc2sc(-c3sc(-c4cc5c(-c6cc(F)c(CC(CC)CCCC)s6)c6sc([$])cc6c(-c6cc(F)c(CC(CC)CCCC)s6)c5s4)cc3C(=O)OCC(CCCC)CCCCCC)cc2s1}.CCCCCCc1cccc(C2(c3cccc(CCCCCC)c3)c3cc4c(cc3-c3sc5cc(/C=C6\C(=O)c7ccccc7C6=C(C#N)C#N)sc5c32)C(c2cccc(CCCCCC)c2)(c2cccc(CCCCCC)c2)c2c-4sc3cc(/C=C4\C(=O)c5ccccc5C4=C(C#N)C#N)sc23)c1
2T-TTC-BDTFT,m-ITIC,-5.41,-3.53,-5.526666666666667,-3.8515384615384622,1.0,o-DCB,_,120.0,PEDOT:PSS,PDINO,11.15,11.15,0.97,16.57,69.37,CCCCCCC(CCCC)CSOC(=O)c1c(-c2ccc(C)s2)sc2c(C(=O)OSCC(CCCC)CCCCCC)c(-c3ccc(-c4cc5c(-c6cc(F)c(CC(CC)CCCC)s6)c6sc(C)cc6c(-c6cc(F)c(CC(CC)CCCC)s6)c5s4)s3)sc12.CCCCCCc1cccc(C2(c3cccc(CCCCCC)c3)c3cc4c(cc3-c3sc5cc(/C=C6\C(=O)c7ccccc7C6=C(C#N)C#N)sc5c32)C(c2cccc(CCCCCC)c2)(c2cccc(CCCCCC)c2)c2c-4sc3cc(/C=C4\C(=O)c5ccccc5C4=C(C#N)C#N)sc23)c1,[C][C][C][C][C][C][C][Branch1][Branch1][C][C][C][C][C][S][O][C][=Branch1][C][=O][C][=C][Branch1][O][C][=C][C][=C][Branch1][C][C][S][Ring1][=Branch1][S][C][C][Branch2][Ring1][Branch1][C][=Branch1][C][=O][O][S][C][C][Branch1][Branch1][C][C][C][C][C][C][C][C][C][C][=C][Branch2][#Branch1][Branch1][C][=C][C][=C][Branch2][=Branch1][#Branch2][C][=C][C][=C][Branch2][Ring1][#Branch1][C][=C][C][Branch1][C][F][=C][Branch1][O][C][C][Branch1][Ring1][C][C][C][C][C][C][S][Ring1][=C][C][S][C][Branch1][C][C][=C][C][=Ring1][=Branch1][C][Branch2][Ring1][#Branch1][C][=C][C][Branch1][C][F][=C][Branch1][O][C][C][Branch1][Ring1][C][C][C][C][C][C][S][Ring1][=C][=C][Ring2][Ring2][=Branch1][S][Ring2][Ring2][=Branch2][S][Ring2][Ring2][=C][S][C][Ring2][=Branch1][N][=Ring2][=Branch1][Ring1].[C][C][C][C][C][C][C][=C][C][=C][C][Branch2][O][N][C][Branch1][P][C][=C][C][=C][C][Branch1][#Branch1][C][C][C][C][C][C][=C][Ring1][N][C][=C][C][=C][Branch2][Ring2][P][C][=C][Ring1][=Branch1][C][S][C][C][=C][Branch2][Ring1][=Branch2][/C][=C][\C][=Branch1][C][=O][C][=C][C][=C][C][=C][Ring1][=Branch1][C][Ring1][#Branch2][=C][Branch1][Ring1][C][#N][C][#N][S][C][=Ring2][Ring1][Branch1][C][=Ring2][Ring1][Branch2][Ring2][Ring2][O][C][Branch1][P][C][=C][C][=C][C][Branch1][#Branch1][C][C][C][C][C][C][=C][Ring1][N][Branch1][P][C][=C][C][=C][C][Branch1][#Branch1][C][C][C][C][C][C][=C][Ring1][N][C][=C][Ring2][Branch1][#Branch1][S][C][C][=C][Branch2][Ring1][=Branch2][/C][=C][\C][=Branch1][C][=O][C][=C][C][=C][C][=C][Ring1][=Branch1][C][Ring1][#Branch2][=C][Branch1][Ring1][C][#N][C][#N][S][C][Ring2][Ring1][Branch2][=Ring2][Ring1][Branch1][=C][Ring2][Branch2][C],{CCCCCCC(CCCC)CSOC(=O)c1c(-c2ccc([$])s2)sc2c(C(=O)OSCC(CCCC)CCCCCC)c(-c3ccc(-c4cc5c(-c6cc(F)c(CC(CC)CCCC)s6)c6sc([$])cc6c(-c6cc(F)c(CC(CC)CCCC)s6)c5s4)s3)sc12}.CCCCCCc1cccc(C2(c3cccc(CCCCCC)c3)c3cc4c(cc3-c3sc5cc(/C=C6\C(=O)c7ccccc7C6=C(C#N)C#N)sc5c32)C(c2cccc(CCCCCC)c2)(c2cccc(CCCCCC)c2)c2c-4sc3cc(/C=C4\C(=O)c5ccccc5C4=C(C#N)C#N)sc23)c1
PB24-3TDC,ITIC-Th,-5.36,-3.58,-5.673333333333334,-3.908888888888889,0.667,CB,DIO,25.0,PEDOT:PSS,C60-bissalt,10.3,10.3,0.902,16.8,68.0,CCCCCCCCC(CCCCCC)COC(=O)c1cc(C)sc1-c1ccc(-c2sc(-c3ccc(-c4c(F)c(F)c(-c5ccc(C)s5)c5nn(CC(CC)CCCC)nc45)s3)cc2C(=O)OCC(CCCCCC)CCCCCCCC)s1.CCCCCCc1ccc(C2(c3ccc(CCCCCC)s3)c3cc4c(cc3-c3sc5cc(/C=C6\C(=O)c7ccccc7C6=C(C#N)C#N)sc5c32)C(c2ccc(CCCCCC)s2)(c2ccc(CCCCCC)s2)c2c-4sc3cc(/C=C4\C(=O)c5ccccc5C4=C(C#N)C#N)sc23)s1,[C][C][C][C][C][C][C][C][C][Branch1][#Branch1][C][C][C][C][C][C][C][O][C][=Branch1][C][=O][C][C][=C][Branch1][C][C][S][C][=Ring1][=Branch1][C][=C][C][=C][Branch2][#Branch1][#Branch2][C][S][C][Branch2][Branch1][Branch2][C][=C][C][=C][Branch2][Ring2][=N][C][=C][Branch1][C][F][C][Branch1][C][F][=C][Branch1][O][C][=C][C][=C][Branch1][C][C][S][Ring1][=Branch1][C][=N][N][Branch1][O][C][C][Branch1][Ring1][C][C][C][C][C][C][N][=C][Ring2][Ring1][=Branch2][Ring1][=N][S][Ring2][Ring1][=C][=C][C][=Ring2][Ring2][Ring1][C][=Branch1][C][=O][O][C][C][Branch1][#Branch1][C][C][C][C][C][C][C][C][C][C][C][C][C][C][S][Ring2][Branch1][O].[C][C][C][C][C][C][C][=C][C][=C][Branch2][O][=Branch2][C][Branch1][S][C][=C][C][=C][Branch1][#Branch1][C][C][C][C][C][C][S][Ring1][O][C][=C][C][=C][Branch2][Ring2][P][C][=C][Ring1][=Branch1][C][S][C][C][=C][Branch2][Ring1][=Branch2][/C][=C][\C][=Branch1][C][=O][C][=C][C][=C][C][=C][Ring1][=Branch1][C][Ring1][#Branch2][=C][Branch1][Ring1][C][#N][C][#N][S][C][=Ring2][Ring1][Branch1][C][=Ring2][Ring1][Branch2][Ring2][Ring2][#Branch2][C][Branch1][S][C][=C][C][=C][Branch1][#Branch1][C][C][C][C][C][C][S][Ring1][O][Branch1][S][C][=C][C][=C][Branch1][#Branch1][C][C][C][C][C][C][S][Ring1][O][C][=C][Ring2][Branch1][Branch1][S][C][C][=C][Branch2][Ring1][=Branch2][/C][=C][\C][=Branch1][C][=O][C][=C][C][=C][C][=C][Ring1][=Branch1][C][Ring1][#Branch2][=C][Branch1][Ring1][C][#N][C][#N][S][C][Ring2][Ring1][Branch2][=Ring2][Ring1][Branch1][S][Ring2][#Branch1][=C],{CCCCCCCCC(CCCCCC)COC(=O)c1cc([$])sc1-c1ccc(-c2sc(-c3ccc(-c4c(F)c(F)c(-c5ccc([$])s5)c5nn(CC(CC)CCCC)nc45)s3)cc2C(=O)OCC(CCCCCC)CCCCCCCC)s1}.CCCCCCc1ccc(C2(c3ccc(CCCCCC)s3)c3cc4c(cc3-c3sc5cc(/C=C6\C(=O)c7ccccc7C6=C(C#N)C#N)sc5c32)C(c2ccc(CCCCCC)s2)(c2ccc(CCCCCC)s2)c2c-4sc3cc(/C=C4\C(=O)c5ccccc5C4=C(C#N)C#N)sc23)s1
PB68-3TDC,ITIC-Th,-5.41,-3.57,-5.673333333333334,-3.908888888888889,0.667,CB,DIO,25.0,PEDOT:PSS,C60-bissalt,7.88,7.88,0.994,12.2,65.0,CCCCCCCCC(CCCCCC)COC(=O)c1cc(C)sc1-c1ccc(-c2sc(-c3ccc(-c4c(F)c(F)c(-c5ccc(C)s5)c5nn(CC(CCCCCC)CCCCCCCC)nc45)s3)cc2C(=O)OCC(CCCCCC)CCCCCCCC)s1.CCCCCCc1ccc(C2(c3ccc(CCCCCC)s3)c3cc4c(cc3-c3sc5cc(/C=C6\C(=O)c7ccccc7C6=C(C#N)C#N)sc5c32)C(c2ccc(CCCCCC)s2)(c2ccc(CCCCCC)s2)c2c-4sc3cc(/C=C4\C(=O)c5ccccc5C4=C(C#N)C#N)sc23)s1,[C][C][C][C][C][C][C][C][C][Branch1][#Branch1][C][C][C][C][C][C][C][O][C][=Branch1][C][=O][C][C][=C][Branch1][C][C][S][C][=Ring1][=Branch1][C][=C][C][=C][Branch2][Branch2][Ring2][C][S][C][Branch2][=Branch1][C][C][=C][C][=C][Branch2][Branch1][#Branch1][C][=C][Branch1][C][F][C][Branch1][C][F][=C][Branch1][O][C][=C][C][=C][Branch1][C][C][S][Ring1][=Branch1][C][=N][N][Branch2][Ring1][Ring1][C][C][Branch1][#Branch1][C][C][C][C][C][C][C][C][C][C][C][C][C][C][N][=C][Ring2][Ring1][P][Ring2][Ring1][Branch1][S][Ring2][Ring2][=Branch1][=C][C][=Ring2][Ring2][O][C][=Branch1][C][=O][O][C][C][Branch1][#Branch1][C][C][C][C][C][C][C][C][C][C][C][C][C][C][S][Ring2][=Branch1][Ring1].[C][C][C][C][C][C][C][=C][C][=C][Branch2][O][=Branch2][C][Branch1][S][C][=C][C][=C][Branch1][#Branch1][C][C][C][C][C][C][S][Ring1][O][C][=C][C][=C][Branch2][Ring2][P][C][=C][Ring1][=Branch1][C][S][C][C][=C][Branch2][Ring1][=Branch2][/C][=C][\C][=Branch1][C][=O][C][=C][C][=C][C][=C][Ring1][=Branch1][C][Ring1][#Branch2][=C][Branch1][Ring1][C][#N][C][#N][S][C][=Ring2][Ring1][Branch1][C][=Ring2][Ring1][Branch2][Ring2][Ring2][#Branch2][C][Branch1][S][C][=C][C][=C][Branch1][#Branch1][C][C][C][C][C][C][S][Ring1][O][Branch1][S][C][=C][C][=C][Branch1][#Branch1][C][C][C][C][C][C][S][Ring1][O][C][=C][Ring2][Branch1][Branch1][S][C][C][=C][Branch2][Ring1][=Branch2][/C][=C][\C][=Branch1][C][=O][C][=C][C][=C][C][=C][Ring1][=Branch1][C][Ring1][#Branch2][=C][Branch1][Ring1][C][#N][C][#N][S][C][Ring2][Ring1][Branch2][=Ring2][Ring1][Branch1][S][Ring2][#Branch1][=C],{CCCCCCCCC(CCCCCC)COC(=O)c1cc([$])sc1-c1ccc(-c2sc(-c3ccc(-c4c(F)c(F)c(-c5ccc([$])s5)c5nn(CC(CCCCCC)CCCCCCCC)nc45)s3)cc2C(=O)OCC(CCCCCC)CCCCCCCC)s1}.CCCCCCc1ccc(C2(c3ccc(CCCCCC)s3)c3cc4c(cc3-c3sc5cc(/C=C6\C(=O)c7ccccc7C6=C(C#N)C#N)sc5c32)C(c2ccc(CCCCCC)s2)(c2ccc(CCCCCC)s2)c2c-4sc3cc(/C=C4\C(=O)c5ccccc5C4=C(C#N)C#N)sc23)s1
PBDB-T,IDNO-IDT,-5.297714285714285,-3.4170000000000003,-5.45,-3.65,1.0,CB,_,140.0,PEDOT:PSS,Ca,1.1,0.94,1.03,2.65,34.47,CCCCC(CC)Cc1ccc(-c2c3cc(-c4ccc(-c5sc(-c6ccc(C)s6)c6c5C(=O)c5c(CC(CC)CCCC)sc(CC(CC)CCCC)c5C6=O)s4)sc3c(-c3ccc(CC(CC)CCCC)s3)c3cc(C)sc23)s1.CCCCCCc1ccc(C2(c3ccc(CCCCCC)cc3)c3cc4c(cc3-c3sc(-c5ccc6c(c5)N(CC)C(=O)C6=O)cc32)C(c2ccc(CCCCCC)cc2)(c2ccc(CCCCCC)cc2)c2cc(-c3ccc5c(c3)N(CC)C(=O)C5=O)sc2-4)cc1,[C][C][C][C][C][Branch1][Ring1][C][C][C][C][=C][C][=C][Branch2][=Branch2][Branch2][C][=C][C][=C][Branch2][=Branch1][Branch2][C][=C][C][=C][Branch2][Branch1][=N][C][S][C][Branch1][O][C][=C][C][=C][Branch1][C][C][S][Ring1][=Branch1][=C][C][=Ring1][O][C][=Branch1][C][=O][C][=C][Branch1][O][C][C][Branch1][Ring1][C][C][C][C][C][C][S][C][Branch1][O][C][C][Branch1][Ring1][C][C][C][C][C][C][=C][Ring2][Ring1][Branch1][C][Ring2][Ring1][#Branch2][=O][S][Ring2][Ring2][=Branch2][S][C][Ring2][Ring2][=C][=C][Branch2][Ring1][Ring2][C][=C][C][=C][Branch1][O][C][C][Branch1][Ring1][C][C][C][C][C][C][S][Ring1][=N][C][C][=C][Branch1][C][C][S][C][Ring2][=Branch1][Ring1][=Ring1][=Branch1][S][Ring2][=Branch1][Branch2].[C][C][C][C][C][C][C][=C][C][=C][Branch2][#Branch2][=C][C][Branch1][P][C][=C][C][=C][Branch1][#Branch1][C][C][C][C][C][C][C][=C][Ring1][N][C][=C][C][=C][Branch2][Ring2][#Branch2][C][=C][Ring1][=Branch1][C][S][C][Branch2][Ring1][Branch2][C][=C][C][=C][C][=Branch1][Ring2][=C][Ring1][=Branch1][N][Branch1][Ring1][C][C][C][=Branch1][C][=O][C][Ring1][=Branch2][=O][=C][C][=Ring2][Ring1][C][Ring2][Ring2][Branch1][C][Branch1][P][C][=C][C][=C][Branch1][#Branch1][C][C][C][C][C][C][C][=C][Ring1][N][Branch1][P][C][=C][C][=C][Branch1][#Branch1][C][C][C][C][C][C][C][=C][Ring1][N][C][C][=C][Branch2][Ring1][Branch2][C][=C][C][=C][C][=Branch1][Ring2][=C][Ring1][=Branch1][N][Branch1][Ring1][C][C][C][=Branch1][C][=O][C][Ring1][=Branch2][=O][S][C][=Ring2][Ring1][C][Ring2][Branch1][P][C][=C][Ring2][#Branch1][=Branch1],{CCCCC(CC)Cc1ccc(-c2c3cc(-c4ccc(-c5sc(-c6ccc([$])s6)c6c5C(=O)c5c(CC(CC)CCCC)sc(CC(CC)CCCC)c5C6=O)s4)sc3c(-c3ccc(CC(CC)CCCC)s3)c3cc([$])sc23)s1}.CCCCCCc1ccc(C2(c3ccc(CCCCCC)cc3)c3cc4c(cc3-c3sc(-c5ccc6c(c5)N(CC)C(=O)C6=O)cc32)C(c2ccc(CCCCCC)cc2)(c2ccc(CCCCCC)cc2)c2cc(-c3ccc5c(c3)N(CC)C(=O)C5=O)sc2-4)cc1
PBDB-T,IM1-IDT,-5.297714285714285,-3.4170000000000003,-5.46,-4.02,0.667,CB,_,140.0,PEDOT:PSS,Ca,1.62,1.32,0.55,5.07,47.41,CCCCC(CC)Cc1ccc(-c2c3cc(-c4ccc(-c5sc(-c6ccc(C)s6)c6c5C(=O)c5c(CC(CC)CCCC)sc(CC(CC)CCCC)c5C6=O)s4)sc3c(-c3ccc(CC(CC)CCCC)s3)c3cc(C)sc23)s1.CCCCCCc1ccc(C2(c3ccc(CCCCCC)cc3)c3cc4c(cc3-c3sc(-c5ccc6c(c5)N(CC)C(=O)C6=C(C#N)C#N)cc32)C(c2ccc(CCCCCC)cc2)(c2ccc(CCCCCC)cc2)c2cc(-c3ccc5c(c3)N(CC)C(=O)C5=C(C#N)C#N)sc2-4)cc1,[C][C][C][C][C][Branch1][Ring1][C][C][C][C][=C][C][=C][Branch2][=Branch2][Branch2][C][=C][C][=C][Branch2][=Branch1][Branch2][C][=C][C][=C][Branch2][Branch1][=N][C][S][C][Branch1][O][C][=C][C][=C][Branch1][C][C][S][Ring1][=Branch1][=C][C][=Ring1][O][C][=Branch1][C][=O][C][=C][Branch1][O][C][C][Branch1][Ring1][C][C][C][C][C][C][S][C][Branch1][O][C][C][Branch1][Ring1][C][C][C][C][C][C][=C][Ring2][Ring1][Branch1][C][Ring2][Ring1][#Branch2][=O][S][Ring2][Ring2][=Branch2][S][C][Ring2][Ring2][=C][=C][Branch2][Ring1][Ring2][C][=C][C][=C][Branch1][O][C][C][Branch1][Ring1][C][C][C][C][C][C][S][Ring1][=N][C][C][=C][Branch1][C][C][S][C][Ring2][=Branch1][Ring1][=Ring1][=Branch1][S][Ring2][=Branch1][Branch2].[C][C][C][C][C][C][C][=C][C][=C][Branch2][O][#Branch2][C][Branch1][P][C][=C][C][=C][Branch1][#Branch1][C][C][C][C][C][C][C][=C][Ring1][N][C][=C][C][=C][Branch2][Ring2][S][C][=C][Ring1][=Branch1][C][S][C][Branch2][Ring1][=C][C][=C][C][=C][C][=Branch1][Ring2][=C][Ring1][=Branch1][N][Branch1][Ring1][C][C][C][=Branch1][C][=O][C][Ring1][=Branch2][=C][Branch1][Ring1][C][#N][C][#N][=C][C][=Ring2][Ring1][=Branch1][Ring2][Ring2][=Branch2][C][Branch1][P][C][=C][C][=C][Branch1][#Branch1][C][C][C][C][C][C][C][=C][Ring1][N][Branch1][P][C][=C][C][=C][Branch1][#Branch1][C][C][C][C][C][C][C][=C][Ring1][N][C][C][=C][Branch2][Ring1][=C][C][=C][C][=C][C][=Branch1][Ring2][=C][Ring1][=Branch1][N][Branch1][Ring1][C][C][C][=Branch1][C][=O][C][Ring1][=Branch2][=C][Branch1][Ring1][C][#N][C][#N][S][C][=Ring2][Ring1][=Branch1][Ring2][=Branch1][=Branch2][C][=C][Ring2][#Branch1][=C],{CCCCC(CC)Cc1ccc(-c2c3cc(-c4ccc(-c5sc(-c6ccc([$])s6)c6c5C(=O)c5c(CC(CC)CCCC)sc(CC(CC)CCCC)c5C6=O)s4)sc3c(-c3ccc(CC(CC)CCCC)s3)c3cc([$])sc23)s1}.CCCCCCc1ccc(C2(c3ccc(CCCCCC)cc3)c3cc4c(cc3-c3sc(-c5ccc6c(c5)N(CC)C(=O)C6=C(C#N)C#N)cc32)C(c2ccc(CCCCCC)cc2)(c2ccc(CCCCCC)cc2)c2cc(-c3ccc5c(c3)N(CC)C(=O)C5=C(C#N)C#N)sc2-4)cc1