Donor,Acceptor,HOMO_D_eV,LUMO_D_eV,Eg_D_eV,Ehl_D_eV,HOMO_A_eV,LUMO_A_eV,Ehl_A_eV,Eg_A_eV,D_A_ratio_m_m,solvent,solvent_additive,annealing_temperature,hole_contact_layer,electron_contact_layer,PCE_percent,calc_PCE_percent,Voc_V,Jsc_mA_cm_pow_neg2,FF_percent,DA_SMILES,DA_SELFIES,DA_BigSMILES
J81,ITIC,-5.43,-2.98,1.93,-2.45,-5.574285714285715,-3.9143137254901954,-1.659971988795519,1.5857894736842106,1:1,CF,_,160.0,PEDOT:PSS,PDINO,10.6,10.6013502,0.95,15.27,73.08,Cc1cc2c(-c3ccc([V])s3)c3oc(-c4ccc(-c5c(F)c(F)c(-c6ccc(C)s6)c6nn([Sc])nc56)s4)cc3c(-c3ccc([V])s3)c2o1.N#CC(C#N)=C1/C(=C/c2cc3sc4c(c3s2)C(c2ccc([Mo])cc2)(c2ccc([Mo])cc2)c2cc3c(cc2-4)C(c2ccc([Mo])cc2)(c2ccc([Mo])cc2)c2c-3sc3cc(/C=C4\C(=O)c5ccccc5C4=C(C#N)C#N)sc23)C(=O)c2ccccc21,[C][C][=C][C][=C][Branch1][O][C][=C][C][=C][Branch1][C][V][S][Ring1][=Branch1][C][O][C][Branch2][Ring2][#C][C][=C][C][=C][Branch2][Ring2][Ring2][C][=C][Branch1][C][F][C][Branch1][C][F][=C][Branch1][O][C][=C][C][=C][Branch1][C][C][S][Ring1][=Branch1][C][=N][N][Branch1][C][Sc][N][=C][Ring2][Ring1][C][Ring1][=Branch1][S][Ring2][Ring1][#Branch1][=C][C][=Ring2][Ring1][N][C][Branch1][O][C][=C][C][=C][Branch1][C][V][S][Ring1][=Branch1][=C][Ring2][Ring2][N][O][Ring2][Ring2][#C].[N][#C][C][Branch1][Ring1][C][#N][=C][/C][=Branch2][=Branch2][#C][=C][/C][=C][C][S][C][=C][Branch1][#Branch1][C][=Ring1][Branch1][S][Ring1][Branch2][C][Branch1][N][C][=C][C][=C][Branch1][C][Mo][C][=C][Ring1][#Branch1][Branch1][N][C][=C][C][=C][Branch1][C][Mo][C][=C][Ring1][#Branch1][C][=C][C][=C][Branch1][Branch2][C][=C][Ring1][=Branch1][Ring2][Ring1][=Branch2][C][Branch1][N][C][=C][C][=C][Branch1][C][Mo][C][=C][Ring1][#Branch1][Branch1][N][C][=C][C][=C][Branch1][C][Mo][C][=C][Ring1][#Branch1][C][=C][Ring2][Ring1][Branch1][S][C][C][=C][Branch2][Ring1][=Branch2][/C][=C][\C][=Branch1][C][=O][C][=C][C][=C][C][=C][Ring1][=Branch1][C][Ring1][#Branch2][=C][Branch1][Ring1][C][#N][C][#N][S][C][Ring2][Ring1][Branch2][=Ring2][Ring1][Branch1][C][=Branch1][C][=O][C][=C][C][=C][C][=C][Ring1][=Branch1][Ring2][=Branch1][#C],{[$]c1cc2c(-c3ccc([V])s3)c3oc(-c4ccc(-c5c(F)c(F)c(-c6ccc([$])s6)c6nn([Sc])nc56)s4)cc3c(-c3ccc([V])s3)c2o1}.N#CC(C#N)=C1/C(=C/c2cc3sc4c(c3s2)C(c2ccc([Mo])cc2)(c2ccc([Mo])cc2)c2cc3c(cc2-4)C(c2ccc([Mo])cc2)(c2ccc([Mo])cc2)c2c-3sc3cc(/C=C4\C(=O)c5ccccc5C4=C(C#N)C#N)sc23)C(=O)c2ccccc21
J81,m-ITIC,-5.43,-2.98,1.93,-2.45,-5.527142857142858,-3.8541666666666674,-1.6729761904761902,1.5783333333333334,1:1,CF,_,160.0,PEDOT:PSS,PDINO,11.05,11.04096096,0.96,16.47,69.83,Cc1cc2c(-c3ccc([V])s3)c3oc(-c4ccc(-c5c(F)c(F)c(-c6ccc(C)s6)c6nn([Sc])nc56)s4)cc3c(-c3ccc([V])s3)c2o1.N#CC(C#N)=C1/C(=C/c2cc3sc4c(c3s2)C(c2cccc([Mo])c2)(c2cccc([Mo])c2)c2cc3c(cc2-4)C(c2cccc([Mo])c2)(c2cccc([Mo])c2)c2c-3sc3cc(/C=C4\C(=O)c5ccccc5C4=C(C#N)C#N)sc23)C(=O)c2ccccc21,[C][C][=C][C][=C][Branch1][O][C][=C][C][=C][Branch1][C][V][S][Ring1][=Branch1][C][O][C][Branch2][Ring2][#C][C][=C][C][=C][Branch2][Ring2][Ring2][C][=C][Branch1][C][F][C][Branch1][C][F][=C][Branch1][O][C][=C][C][=C][Branch1][C][C][S][Ring1][=Branch1][C][=N][N][Branch1][C][Sc][N][=C][Ring2][Ring1][C][Ring1][=Branch1][S][Ring2][Ring1][#Branch1][=C][C][=Ring2][Ring1][N][C][Branch1][O][C][=C][C][=C][Branch1][C][V][S][Ring1][=Branch1][=C][Ring2][Ring2][N][O][Ring2][Ring2][#C].[N][#C][C][Branch1][Ring1][C][#N][=C][/C][=Branch2][=Branch2][#C][=C][/C][=C][C][S][C][=C][Branch1][#Branch1][C][=Ring1][Branch1][S][Ring1][Branch2][C][Branch1][N][C][=C][C][=C][C][Branch1][C][Mo][=C][Ring1][#Branch1][Branch1][N][C][=C][C][=C][C][Branch1][C][Mo][=C][Ring1][#Branch1][C][=C][C][=C][Branch1][Branch2][C][=C][Ring1][=Branch1][Ring2][Ring1][=Branch2][C][Branch1][N][C][=C][C][=C][C][Branch1][C][Mo][=C][Ring1][#Branch1][Branch1][N][C][=C][C][=C][C][Branch1][C][Mo][=C][Ring1][#Branch1][C][=C][Ring2][Ring1][Branch1][S][C][C][=C][Branch2][Ring1][=Branch2][/C][=C][\C][=Branch1][C][=O][C][=C][C][=C][C][=C][Ring1][=Branch1][C][Ring1][#Branch2][=C][Branch1][Ring1][C][#N][C][#N][S][C][Ring2][Ring1][Branch2][=Ring2][Ring1][Branch1][C][=Branch1][C][=O][C][=C][C][=C][C][=C][Ring1][=Branch1][Ring2][=Branch1][#C],{[$]c1cc2c(-c3ccc([V])s3)c3oc(-c4ccc(-c5c(F)c(F)c(-c6ccc([$])s6)c6nn([Sc])nc56)s4)cc3c(-c3ccc([V])s3)c2o1}.N#CC(C#N)=C1/C(=C/c2cc3sc4c(c3s2)C(c2cccc([Mo])c2)(c2cccc([Mo])c2)c2cc3c(cc2-4)C(c2cccc([Mo])c2)(c2cccc([Mo])c2)c2c-3sc3cc(/C=C4\C(=O)c5ccccc5C4=C(C#N)C#N)sc23)C(=O)c2ccccc21
PBDT(T)[2F]T,ITIC,-5.22,-3.22,2.0,-2.0,-5.574285714285715,-3.9143137254901954,-1.659971988795519,1.5857894736842106,1:1,CB,_,160.0,MoOx,ZnO,9.8,9.84932,0.94,16.9,62.0,Cc1cc2c(-c3ccc([Cr])s3)c3sc(-c4sc(C)c(F)c4F)cc3c(-c3ccc([Cr])s3)c2s1.N#CC(C#N)=C1/C(=C/c2cc3sc4c(c3s2)C(c2ccc([Mo])cc2)(c2ccc([Mo])cc2)c2cc3c(cc2-4)C(c2ccc([Mo])cc2)(c2ccc([Mo])cc2)c2c-3sc3cc(/C=C4\C(=O)c5ccccc5C4=C(C#N)C#N)sc23)C(=O)c2ccccc21,[C][C][=C][C][=C][Branch1][O][C][=C][C][=C][Branch1][C][Cr][S][Ring1][=Branch1][C][S][C][Branch1][#C][C][S][C][Branch1][C][C][=C][Branch1][C][F][C][=Ring1][#Branch1][F][=C][C][=Ring1][=N][C][Branch1][O][C][=C][C][=C][Branch1][C][Cr][S][Ring1][=Branch1][=C][Ring2][Ring1][=N][S][Ring2][Ring1][S].[N][#C][C][Branch1][Ring1][C][#N][=C][/C][=Branch2][=Branch2][#C][=C][/C][=C][C][S][C][=C][Branch1][#Branch1][C][=Ring1][Branch1][S][Ring1][Branch2][C][Branch1][N][C][=C][C][=C][Branch1][C][Mo][C][=C][Ring1][#Branch1][Branch1][N][C][=C][C][=C][Branch1][C][Mo][C][=C][Ring1][#Branch1][C][=C][C][=C][Branch1][Branch2][C][=C][Ring1][=Branch1][Ring2][Ring1][=Branch2][C][Branch1][N][C][=C][C][=C][Branch1][C][Mo][C][=C][Ring1][#Branch1][Branch1][N][C][=C][C][=C][Branch1][C][Mo][C][=C][Ring1][#Branch1][C][=C][Ring2][Ring1][Branch1][S][C][C][=C][Branch2][Ring1][=Branch2][/C][=C][\C][=Branch1][C][=O][C][=C][C][=C][C][=C][Ring1][=Branch1][C][Ring1][#Branch2][=C][Branch1][Ring1][C][#N][C][#N][S][C][Ring2][Ring1][Branch2][=Ring2][Ring1][Branch1][C][=Branch1][C][=O][C][=C][C][=C][C][=C][Ring1][=Branch1][Ring2][=Branch1][#C],{[$]c1cc2c(-c3ccc([Cr])s3)c3sc(-c4sc([$])c(F)c4F)cc3c(-c3ccc([Cr])s3)c2s1}.N#CC(C#N)=C1/C(=C/c2cc3sc4c(c3s2)C(c2ccc([Mo])cc2)(c2ccc([Mo])cc2)c2cc3c(cc2-4)C(c2ccc([Mo])cc2)(c2ccc([Mo])cc2)c2c-3sc3cc(/C=C4\C(=O)c5ccccc5C4=C(C#N)C#N)sc23)C(=O)c2ccccc21
PBDT[2F]T,ITIC,-5.29,-3.19,2.1,-2.1,-5.574285714285715,-3.9143137254901954,-1.659971988795519,1.5857894736842106,1.5:1,CB,_,25.0,MoOx,ZnO,5.8,5.77912,0.94,11.6,53.0,Cc1cc2c(O[Cr])c3sc(-c4sc(C)c(F)c4F)cc3c(O[Cr])c2s1.N#CC(C#N)=C1/C(=C/c2cc3sc4c(c3s2)C(c2ccc([Mo])cc2)(c2ccc([Mo])cc2)c2cc3c(cc2-4)C(c2ccc([Mo])cc2)(c2ccc([Mo])cc2)c2c-3sc3cc(/C=C4\C(=O)c5ccccc5C4=C(C#N)C#N)sc23)C(=O)c2ccccc21,[C][C][=C][C][=C][Branch1][Ring1][O][Cr][C][S][C][Branch1][#C][C][S][C][Branch1][C][C][=C][Branch1][C][F][C][=Ring1][#Branch1][F][=C][C][=Ring1][=N][C][Branch1][Ring1][O][Cr][=C][Ring2][Ring1][Branch1][S][Ring2][Ring1][Branch2].[N][#C][C][Branch1][Ring1][C][#N][=C][/C][=Branch2][=Branch2][#C][=C][/C][=C][C][S][C][=C][Branch1][#Branch1][C][=Ring1][Branch1][S][Ring1][Branch2][C][Branch1][N][C][=C][C][=C][Branch1][C][Mo][C][=C][Ring1][#Branch1][Branch1][N][C][=C][C][=C][Branch1][C][Mo][C][=C][Ring1][#Branch1][C][=C][C][=C][Branch1][Branch2][C][=C][Ring1][=Branch1][Ring2][Ring1][=Branch2][C][Branch1][N][C][=C][C][=C][Branch1][C][Mo][C][=C][Ring1][#Branch1][Branch1][N][C][=C][C][=C][Branch1][C][Mo][C][=C][Ring1][#Branch1][C][=C][Ring2][Ring1][Branch1][S][C][C][=C][Branch2][Ring1][=Branch2][/C][=C][\C][=Branch1][C][=O][C][=C][C][=C][C][=C][Ring1][=Branch1][C][Ring1][#Branch2][=C][Branch1][Ring1][C][#N][C][#N][S][C][Ring2][Ring1][Branch2][=Ring2][Ring1][Branch1][C][=Branch1][C][=O][C][=C][C][=C][C][=C][Ring1][=Branch1][Ring2][=Branch1][#C],{[$]c1cc2c(O[Cr])c3sc(-c4sc([$])c(F)c4F)cc3c(O[Cr])c2s1}.N#CC(C#N)=C1/C(=C/c2cc3sc4c(c3s2)C(c2ccc([Mo])cc2)(c2ccc([Mo])cc2)c2cc3c(cc2-4)C(c2ccc([Mo])cc2)(c2ccc([Mo])cc2)c2c-3sc3cc(/C=C4\C(=O)c5ccccc5C4=C(C#N)C#N)sc23)C(=O)c2ccccc21
PBDT[2H]T,ITIC,-5.03,-2.93,2.1,-2.1,-5.574285714285715,-3.9143137254901954,-1.659971988795519,1.5857894736842106,1:1,CB,_,160.0,MoOx,ZnO,2.5,2.46164,0.79,7.6,41.0,Cc1ccc(-c2cc3c(O[Cr])c4sc(C)cc4c(O[Cr])c3s2)s1.N#CC(C#N)=C1/C(=C/c2cc3sc4c(c3s2)C(c2ccc([Mo])cc2)(c2ccc([Mo])cc2)c2cc3c(cc2-4)C(c2ccc([Mo])cc2)(c2ccc([Mo])cc2)c2c-3sc3cc(/C=C4\C(=O)c5ccccc5C4=C(C#N)C#N)sc23)C(=O)c2ccccc21,[C][C][=C][C][=C][Branch2][Ring1][=C][C][=C][C][=C][Branch1][Ring1][O][Cr][C][S][C][Branch1][C][C][=C][C][=Ring1][=Branch1][C][Branch1][Ring1][O][Cr][=C][Ring1][=C][S][Ring1][P][S][Ring2][Ring1][=Branch1].[N][#C][C][Branch1][Ring1][C][#N][=C][/C][=Branch2][=Branch2][#C][=C][/C][=C][C][S][C][=C][Branch1][#Branch1][C][=Ring1][Branch1][S][Ring1][Branch2][C][Branch1][N][C][=C][C][=C][Branch1][C][Mo][C][=C][Ring1][#Branch1][Branch1][N][C][=C][C][=C][Branch1][C][Mo][C][=C][Ring1][#Branch1][C][=C][C][=C][Branch1][Branch2][C][=C][Ring1][=Branch1][Ring2][Ring1][=Branch2][C][Branch1][N][C][=C][C][=C][Branch1][C][Mo][C][=C][Ring1][#Branch1][Branch1][N][C][=C][C][=C][Branch1][C][Mo][C][=C][Ring1][#Branch1][C][=C][Ring2][Ring1][Branch1][S][C][C][=C][Branch2][Ring1][=Branch2][/C][=C][\C][=Branch1][C][=O][C][=C][C][=C][C][=C][Ring1][=Branch1][C][Ring1][#Branch2][=C][Branch1][Ring1][C][#N][C][#N][S][C][Ring2][Ring1][Branch2][=Ring2][Ring1][Branch1][C][=Branch1][C][=O][C][=C][C][=C][C][=C][Ring1][=Branch1][Ring2][=Branch1][#C],{[$]c1ccc(-c2cc3c(O[Cr])c4sc([$])cc4c(O[Cr])c3s2)s1}.N#CC(C#N)=C1/C(=C/c2cc3sc4c(c3s2)C(c2ccc([Mo])cc2)(c2ccc([Mo])cc2)c2cc3c(cc2-4)C(c2ccc([Mo])cc2)(c2ccc([Mo])cc2)c2c-3sc3cc(/C=C4\C(=O)c5ccccc5C4=C(C#N)C#N)sc23)C(=O)c2ccccc21
PBDT-2TC,ITIC,-5.43,-3.57,1.96,-1.86,-5.574285714285715,-3.9143137254901954,-1.659971988795519,1.5857894736842106,1:1,CB,_,120.0,PEDOT:PSS,C60-bissalt,9.35,9.348453,0.93,15.3,65.7,Cc1ccc(-c2sc(-c3cc4c(-c5ccc([Cr])s5)c5sc(C)cc5c(-c5ccc([Cr])s5)c4s3)cc2C(=O)O[Co])s1.N#CC(C#N)=C1/C(=C/c2cc3sc4c(c3s2)C(c2ccc([Mo])cc2)(c2ccc([Mo])cc2)c2cc3c(cc2-4)C(c2ccc([Mo])cc2)(c2ccc([Mo])cc2)c2c-3sc3cc(/C=C4\C(=O)c5ccccc5C4=C(C#N)C#N)sc23)C(=O)c2ccccc21,[C][C][=C][C][=C][Branch2][Branch1][P][C][S][C][Branch2][Ring2][S][C][=C][C][=C][Branch1][O][C][=C][C][=C][Branch1][C][Cr][S][Ring1][=Branch1][C][S][C][Branch1][C][C][=C][C][=Ring1][=Branch1][C][Branch1][O][C][=C][C][=C][Branch1][C][Cr][S][Ring1][=Branch1][=C][Ring2][Ring1][=Branch1][S][Ring2][Ring1][=Branch2][=C][C][=Ring2][Ring1][=C][C][=Branch1][C][=O][O][Co][S][Ring2][Ring2][#Branch1].[N][#C][C][Branch1][Ring1][C][#N][=C][/C][=Branch2][=Branch2][#C][=C][/C][=C][C][S][C][=C][Branch1][#Branch1][C][=Ring1][Branch1][S][Ring1][Branch2][C][Branch1][N][C][=C][C][=C][Branch1][C][Mo][C][=C][Ring1][#Branch1][Branch1][N][C][=C][C][=C][Branch1][C][Mo][C][=C][Ring1][#Branch1][C][=C][C][=C][Branch1][Branch2][C][=C][Ring1][=Branch1][Ring2][Ring1][=Branch2][C][Branch1][N][C][=C][C][=C][Branch1][C][Mo][C][=C][Ring1][#Branch1][Branch1][N][C][=C][C][=C][Branch1][C][Mo][C][=C][Ring1][#Branch1][C][=C][Ring2][Ring1][Branch1][S][C][C][=C][Branch2][Ring1][=Branch2][/C][=C][\C][=Branch1][C][=O][C][=C][C][=C][C][=C][Ring1][=Branch1][C][Ring1][#Branch2][=C][Branch1][Ring1][C][#N][C][#N][S][C][Ring2][Ring1][Branch2][=Ring2][Ring1][Branch1][C][=Branch1][C][=O][C][=C][C][=C][C][=C][Ring1][=Branch1][Ring2][=Branch1][#C],{[$]c1ccc(-c2sc(-c3cc4c(-c5ccc([Cr])s5)c5sc([$])cc5c(-c5ccc([Cr])s5)c4s3)cc2C(=O)O[Co])s1}.N#CC(C#N)=C1/C(=C/c2cc3sc4c(c3s2)C(c2ccc([Mo])cc2)(c2ccc([Mo])cc2)c2cc3c(cc2-4)C(c2ccc([Mo])cc2)(c2ccc([Mo])cc2)c2c-3sc3cc(/C=C4\C(=O)c5ccccc5C4=C(C#N)C#N)sc23)C(=O)c2ccccc21
PBDT-FBT,ITIC,-5.14,-3.35,1.69,-1.7899999999999996,-5.574285714285715,-3.9143137254901954,-1.659971988795519,1.5857894736842106,1:1,CB,DIO,25.0,MoOx,ZnO,7.15,7.1829868,0.82,13.73,63.8,Cc1cc2c(-c3ccc([Co])s3)c3sc(-c4sc(-c5c(F)c(F)c(-c6cc([Ti])c(C)s6)c6nsnc56)cc4[Ti])cc3c(-c3ccc([Co])s3)c2s1.N#CC(C#N)=C1/C(=C/c2cc3sc4c(c3s2)C(c2ccc([Mo])cc2)(c2ccc([Mo])cc2)c2cc3c(cc2-4)C(c2ccc([Mo])cc2)(c2ccc([Mo])cc2)c2c-3sc3cc(/C=C4\C(=O)c5ccccc5C4=C(C#N)C#N)sc23)C(=O)c2ccccc21,[C][C][=C][C][=C][Branch1][O][C][=C][C][=C][Branch1][C][Co][S][Ring1][=Branch1][C][S][C][Branch2][Ring2][S][C][S][C][Branch2][Ring2][Ring2][C][=C][Branch1][C][F][C][Branch1][C][F][=C][Branch1][=C][C][=C][C][Branch1][C][Ti][=C][Branch1][C][C][S][Ring1][#Branch1][C][=N][S][N][=C][Ring2][Ring1][C][Ring1][Branch1][=C][C][=Ring2][Ring1][#Branch1][Ti][=C][C][=Ring2][Ring1][=N][C][Branch1][O][C][=C][C][=C][Branch1][C][Co][S][Ring1][=Branch1][=C][Ring2][Ring2][=N][S][Ring2][Ring2][S].[N][#C][C][Branch1][Ring1][C][#N][=C][/C][=Branch2][=Branch2][#C][=C][/C][=C][C][S][C][=C][Branch1][#Branch1][C][=Ring1][Branch1][S][Ring1][Branch2][C][Branch1][N][C][=C][C][=C][Branch1][C][Mo][C][=C][Ring1][#Branch1][Branch1][N][C][=C][C][=C][Branch1][C][Mo][C][=C][Ring1][#Branch1][C][=C][C][=C][Branch1][Branch2][C][=C][Ring1][=Branch1][Ring2][Ring1][=Branch2][C][Branch1][N][C][=C][C][=C][Branch1][C][Mo][C][=C][Ring1][#Branch1][Branch1][N][C][=C][C][=C][Branch1][C][Mo][C][=C][Ring1][#Branch1][C][=C][Ring2][Ring1][Branch1][S][C][C][=C][Branch2][Ring1][=Branch2][/C][=C][\C][=Branch1][C][=O][C][=C][C][=C][C][=C][Ring1][=Branch1][C][Ring1][#Branch2][=C][Branch1][Ring1][C][#N][C][#N][S][C][Ring2][Ring1][Branch2][=Ring2][Ring1][Branch1][C][=Branch1][C][=O][C][=C][C][=C][C][=C][Ring1][=Branch1][Ring2][=Branch1][#C],{[$]c1cc2c(-c3ccc([Co])s3)c3sc(-c4sc(-c5c(F)c(F)c(-c6cc([Ti])c([$])s6)c6nsnc56)cc4[Ti])cc3c(-c3ccc([Co])s3)c2s1}.N#CC(C#N)=C1/C(=C/c2cc3sc4c(c3s2)C(c2ccc([Mo])cc2)(c2ccc([Mo])cc2)c2cc3c(cc2-4)C(c2ccc([Mo])cc2)(c2ccc([Mo])cc2)c2c-3sc3cc(/C=C4\C(=O)c5ccccc5C4=C(C#N)C#N)sc23)C(=O)c2ccccc21
PBDTF-FBT,ITIC,-5.34,-3.53,1.71,-1.81,-5.574285714285715,-3.9143137254901954,-1.659971988795519,1.5857894736842106,1:1,CB,DIO,25.0,MoOx,ZnO,9.17,9.177246,0.9,15.38,66.3,Cc1cc2c(-c3cc(F)c([Co])s3)c3sc(-c4sc(-c5c(F)c(F)c(-c6cc([Ti])c(C)s6)c6nsnc56)cc4[Ti])cc3c(-c3cc(F)c(S)s3)c2s1.N#CC(C#N)=C1/C(=C/c2cc3sc4c(c3s2)C(c2ccc([Mo])cc2)(c2ccc([Mo])cc2)c2cc3c(cc2-4)C(c2ccc([Mo])cc2)(c2ccc([Mo])cc2)c2c-3sc3cc(/C=C4\C(=O)c5ccccc5C4=C(C#N)C#N)sc23)C(=O)c2ccccc21,[C][C][=C][C][=C][Branch1][=C][C][=C][C][Branch1][C][F][=C][Branch1][C][Co][S][Ring1][#Branch1][C][S][C][Branch2][Ring2][S][C][S][C][Branch2][Ring2][Ring2][C][=C][Branch1][C][F][C][Branch1][C][F][=C][Branch1][=C][C][=C][C][Branch1][C][Ti][=C][Branch1][C][C][S][Ring1][#Branch1][C][=N][S][N][=C][Ring2][Ring1][C][Ring1][Branch1][=C][C][=Ring2][Ring1][#Branch1][Ti][=C][C][=Ring2][Ring1][=N][C][Branch1][=C][C][=C][C][Branch1][C][F][=C][Branch1][C][S][S][Ring1][#Branch1][=C][Ring2][Ring2][#C][S][Ring2][Branch1][C].[N][#C][C][Branch1][Ring1][C][#N][=C][/C][=Branch2][=Branch2][#C][=C][/C][=C][C][S][C][=C][Branch1][#Branch1][C][=Ring1][Branch1][S][Ring1][Branch2][C][Branch1][N][C][=C][C][=C][Branch1][C][Mo][C][=C][Ring1][#Branch1][Branch1][N][C][=C][C][=C][Branch1][C][Mo][C][=C][Ring1][#Branch1][C][=C][C][=C][Branch1][Branch2][C][=C][Ring1][=Branch1][Ring2][Ring1][=Branch2][C][Branch1][N][C][=C][C][=C][Branch1][C][Mo][C][=C][Ring1][#Branch1][Branch1][N][C][=C][C][=C][Branch1][C][Mo][C][=C][Ring1][#Branch1][C][=C][Ring2][Ring1][Branch1][S][C][C][=C][Branch2][Ring1][=Branch2][/C][=C][\C][=Branch1][C][=O][C][=C][C][=C][C][=C][Ring1][=Branch1][C][Ring1][#Branch2][=C][Branch1][Ring1][C][#N][C][#N][S][C][Ring2][Ring1][Branch2][=Ring2][Ring1][Branch1][C][=Branch1][C][=O][C][=C][C][=C][C][=C][Ring1][=Branch1][Ring2][=Branch1][#C],{[$]c1cc2c(-c3cc(F)c([Co])s3)c3sc(-c4sc(-c5c(F)c(F)c(-c6cc([Ti])c([$])s6)c6nsnc56)cc4[Ti])cc3c(-c3cc(F)c(S)s3)c2s1}.N#CC(C#N)=C1/C(=C/c2cc3sc4c(c3s2)C(c2ccc([Mo])cc2)(c2ccc([Mo])cc2)c2cc3c(cc2-4)C(c2ccc([Mo])cc2)(c2ccc([Mo])cc2)c2c-3sc3cc(/C=C4\C(=O)c5ccccc5C4=C(C#N)C#N)sc23)C(=O)c2ccccc21
PBDTS-FBT,ITIC,-5.2,-3.4,1.7,-1.8000000000000005,-5.574285714285715,-3.9143137254901954,-1.659971988795519,1.5857894736842106,1:1,CB,DIO,25.0,MoOx,ZnO,8.58,8.5806413,0.89,14.63,65.9,Cc1cc2c(-c3ccc(S[Co])s3)c3sc(-c4sc(-c5c(F)c(F)c(-c6cc([Ti])c(C)s6)c6nsnc56)cc4[Ti])cc3c(-c3ccc(S[Co])s3)c2s1.N#CC(C#N)=C1/C(=C/c2cc3sc4c(c3s2)C(c2ccc([Mo])cc2)(c2ccc([Mo])cc2)c2cc3c(cc2-4)C(c2ccc([Mo])cc2)(c2ccc([Mo])cc2)c2c-3sc3cc(/C=C4\C(=O)c5ccccc5C4=C(C#N)C#N)sc23)C(=O)c2ccccc21,[C][C][=C][C][=C][Branch1][N][C][=C][C][=C][Branch1][Ring1][S][Co][S][Ring1][#Branch1][C][S][C][Branch2][Ring2][S][C][S][C][Branch2][Ring2][Ring2][C][=C][Branch1][C][F][C][Branch1][C][F][=C][Branch1][=C][C][=C][C][Branch1][C][Ti][=C][Branch1][C][C][S][Ring1][#Branch1][C][=N][S][N][=C][Ring2][Ring1][C][Ring1][Branch1][=C][C][=Ring2][Ring1][#Branch1][Ti][=C][C][=Ring2][Ring1][=N][C][Branch1][N][C][=C][C][=C][Branch1][Ring1][S][Co][S][Ring1][#Branch1][=C][Ring2][Ring2][#C][S][Ring2][Branch1][C].[N][#C][C][Branch1][Ring1][C][#N][=C][/C][=Branch2][=Branch2][#C][=C][/C][=C][C][S][C][=C][Branch1][#Branch1][C][=Ring1][Branch1][S][Ring1][Branch2][C][Branch1][N][C][=C][C][=C][Branch1][C][Mo][C][=C][Ring1][#Branch1][Branch1][N][C][=C][C][=C][Branch1][C][Mo][C][=C][Ring1][#Branch1][C][=C][C][=C][Branch1][Branch2][C][=C][Ring1][=Branch1][Ring2][Ring1][=Branch2][C][Branch1][N][C][=C][C][=C][Branch1][C][Mo][C][=C][Ring1][#Branch1][Branch1][N][C][=C][C][=C][Branch1][C][Mo][C][=C][Ring1][#Branch1][C][=C][Ring2][Ring1][Branch1][S][C][C][=C][Branch2][Ring1][=Branch2][/C][=C][\C][=Branch1][C][=O][C][=C][C][=C][C][=C][Ring1][=Branch1][C][Ring1][#Branch2][=C][Branch1][Ring1][C][#N][C][#N][S][C][Ring2][Ring1][Branch2][=Ring2][Ring1][Branch1][C][=Branch1][C][=O][C][=C][C][=C][C][=C][Ring1][=Branch1][Ring2][=Branch1][#C],{[$]c1cc2c(-c3ccc(S[Co])s3)c3sc(-c4sc(-c5c(F)c(F)c(-c6cc([Ti])c([$])s6)c6nsnc56)cc4[Ti])cc3c(-c3ccc(S[Co])s3)c2s1}.N#CC(C#N)=C1/C(=C/c2cc3sc4c(c3s2)C(c2ccc([Mo])cc2)(c2ccc([Mo])cc2)c2cc3c(cc2-4)C(c2ccc([Mo])cc2)(c2ccc([Mo])cc2)c2c-3sc3cc(/C=C4\C(=O)c5ccccc5C4=C(C#N)C#N)sc23)C(=O)c2ccccc21