Donor,Acceptor,HOMO_D_eV,LUMO_D_eV,Eg_D_eV,Ehl_D_eV,HOMO_A_eV,LUMO_A_eV,Ehl_A_eV,Eg_A_eV,D_A_ratio_m_m,solvent,solvent_additive,annealing_temperature,hole_contact_layer,electron_contact_layer,PCE_percent,calc_PCE_percent,Voc_V,Jsc_mA_cm_pow_neg2,FF_percent,DA_SMILES,DA_SELFIES,DA_BigSMILES
BO2FEH,m-ITIC-OR-4Cl,-5.59,-3.59,1.8,-2.0,-5.78,-4.05,-1.7300000000000004,1.52,1:1.5,CB,_,150.0,MoOx,ZnO,6.4,6.14592,0.88,14.4,48.5,Cc1ccc(-c2c(O[Cr])c(O[Cr])c(-c3ccc(-c4cc5c(-c6cc(F)c([Cr])s6)c6sc(C)cc6c(-c6cc(F)c([Cr])s6)c5s4)s3)c3nonc23)s1.N#CC(C#N)=C1/C(=C/c2cc3sc4c(c3s2)C(c2cccc(O[Mo])c2)(c2cccc(O[Mo])c2)c2cc3c(cc2-4)C(c2cccc(O[Mo])c2)(c2cccc(O[Mo])c2)c2c-3sc3cc(/C=C4\C(=O)c5cc(Cl)c(Cl)cc5C4=C(C#N)C#N)sc23)C(=O)c2cc(Cl)c(Cl)cc21,[C][C][=C][C][=C][Branch2][#Branch1][#Branch2][C][=C][Branch1][Ring1][O][Cr][C][Branch1][Ring1][O][Cr][=C][Branch2][Branch1][P][C][=C][C][=C][Branch2][Branch1][=Branch1][C][=C][C][=C][Branch1][=C][C][=C][C][Branch1][C][F][=C][Branch1][C][Cr][S][Ring1][#Branch1][C][S][C][Branch1][C][C][=C][C][=Ring1][=Branch1][C][Branch1][=C][C][=C][C][Branch1][C][F][=C][Branch1][C][Cr][S][Ring1][#Branch1][=C][Ring2][Ring1][Branch2][S][Ring2][Ring1][O][S][Ring2][Ring1][S][C][=N][O][N][=C][Ring2][Ring2][=N][Ring1][Branch1][S][Ring2][Branch1][C].[N][#C][C][Branch1][Ring1][C][#N][=C][/C][=Branch2][#Branch2][=Branch2][=C][/C][=C][C][S][C][=C][Branch1][#Branch1][C][=Ring1][Branch1][S][Ring1][Branch2][C][Branch1][=N][C][=C][C][=C][C][Branch1][Ring1][O][Mo][=C][Ring1][Branch2][Branch1][=N][C][=C][C][=C][C][Branch1][Ring1][O][Mo][=C][Ring1][Branch2][C][=C][C][=C][Branch1][Branch2][C][=C][Ring1][=Branch1][Ring2][Ring1][O][C][Branch1][=N][C][=C][C][=C][C][Branch1][Ring1][O][Mo][=C][Ring1][Branch2][Branch1][=N][C][=C][C][=C][C][Branch1][Ring1][O][Mo][=C][Ring1][Branch2][C][=C][Ring2][Ring1][#Branch1][S][C][C][=C][Branch2][Ring1][#C][/C][=C][\C][=Branch1][C][=O][C][=C][C][Branch1][C][Cl][=C][Branch1][C][Cl][C][=C][Ring1][Branch2][C][Ring1][N][=C][Branch1][Ring1][C][#N][C][#N][S][C][Ring2][Ring1][#Branch2][=Ring2][Ring1][#Branch1][C][=Branch1][C][=O][C][=C][C][Branch1][C][Cl][=C][Branch1][C][Cl][C][=C][Ring1][Branch2][Ring2][#Branch1][#Branch1],{[$]c1ccc(-c2c(O[Cr])c(O[Cr])c(-c3ccc(-c4cc5c(-c6cc(F)c([Cr])s6)c6sc([$])cc6c(-c6cc(F)c([Cr])s6)c5s4)s3)c3nonc23)s1}.N#CC(C#N)=C1/C(=C/c2cc3sc4c(c3s2)C(c2cccc(O[Mo])c2)(c2cccc(O[Mo])c2)c2cc3c(cc2-4)C(c2cccc(O[Mo])c2)(c2cccc(O[Mo])c2)c2c-3sc3cc(/C=C4\C(=O)c5cc(Cl)c(Cl)cc5C4=C(C#N)C#N)sc23)C(=O)c2cc(Cl)c(Cl)cc21
PTB-EDOTS,ITIC-Th,-5.38,-3.69,1.55,-1.69,-5.673333333333334,-3.908888888888889,-1.764444444444445,1.6,1:1.5,MeTHF,_,100.0,MoOx,ZnO,10.18,10.1816,0.88,16.25,71.2,Cc1cc2c(-c3sc(S[Cr])c4c3OCCO4)c3sc(-c4sc(C)c5c(F)c(C(=O)O[Cr])sc45)cc3c(-c3sc(S[Cr])c4c3OCCO4)c2s1.N#CC(C#N)=C1/C(=C/c2cc3sc4c(c3s2)C(c2ccc([Mo])s2)(c2ccc([Mo])s2)c2cc3c(cc2-4)C(c2ccc([Mo])s2)(c2ccc([Mo])s2)c2c-3sc3cc(/C=C4\C(=O)c5ccccc5C4=C(C#N)C#N)sc23)C(=O)c2ccccc21,[C][C][=C][C][=C][Branch2][Ring1][C][C][S][C][Branch1][Ring1][S][Cr][=C][C][=Ring1][#Branch1][O][C][C][O][Ring1][=Branch1][C][S][C][Branch2][Ring1][O][C][S][C][Branch1][C][C][=C][C][Branch1][C][F][=C][Branch1][#Branch1][C][=Branch1][C][=O][O][Cr][S][C][=Ring1][=C][Ring1][#Branch2][=C][C][=Ring2][Ring1][Ring1][C][Branch2][Ring1][C][C][S][C][Branch1][Ring1][S][Cr][=C][C][=Ring1][#Branch1][O][C][C][O][Ring1][=Branch1][=C][Ring2][Ring2][=N][S][Ring2][Ring2][S].[N][#C][C][Branch1][Ring1][C][#N][=C][/C][=Branch2][=Branch2][O][=C][/C][=C][C][S][C][=C][Branch1][#Branch1][C][=Ring1][Branch1][S][Ring1][Branch2][C][Branch1][O][C][=C][C][=C][Branch1][C][Mo][S][Ring1][=Branch1][Branch1][O][C][=C][C][=C][Branch1][C][Mo][S][Ring1][=Branch1][C][=C][C][=C][Branch1][Branch2][C][=C][Ring1][=Branch1][Ring2][Ring1][#Branch1][C][Branch1][O][C][=C][C][=C][Branch1][C][Mo][S][Ring1][=Branch1][Branch1][O][C][=C][C][=C][Branch1][C][Mo][S][Ring1][=Branch1][C][=C][Ring2][Ring1][Ring1][S][C][C][=C][Branch2][Ring1][=Branch2][/C][=C][\C][=Branch1][C][=O][C][=C][C][=C][C][=C][Ring1][=Branch1][C][Ring1][#Branch2][=C][Branch1][Ring1][C][#N][C][#N][S][C][Ring2][Ring1][Branch2][=Ring2][Ring1][Branch1][C][=Branch1][C][=O][C][=C][C][=C][C][=C][Ring1][=Branch1][Ring2][=Branch1][O],{[$]c1cc2c(-c3sc(S[Cr])c4c3OCCO4)c3sc(-c4sc([$])c5c(F)c(C(=O)O[Cr])sc45)cc3c(-c3sc(S[Cr])c4c3OCCO4)c2s1}.N#CC(C#N)=C1/C(=C/c2cc3sc4c(c3s2)C(c2ccc([Mo])s2)(c2ccc([Mo])s2)c2cc3c(cc2-4)C(c2ccc([Mo])s2)(c2ccc([Mo])s2)c2c-3sc3cc(/C=C4\C(=O)c5ccccc5C4=C(C#N)C#N)sc23)C(=O)c2ccccc21
POPB,IT-4F,-5.38,-3.57,1.81,-1.81,-5.670384615384615,-4.058076923076923,-1.6123076923076916,0.7441176470588237,1:1.5,CB,DIO,25.0,MoOx,ZnO,6.2,6.193152,0.72,16.8,51.2,Cc1ccc(-c2sc(-c3ccc(-c4cc5c(-c6ccc(O[Sc])cc6)c6sc(C)cc6c(-c6ccc(O[Sc])cc6)c5s4)s3)c3c2C(=O)c2c([Cr])sc([Cr])c2C3=O)s1.N#CC(C#N)=C1/C(=C/c2cc3sc4c(c3s2)C(c2ccc([Mo])cc2)(c2ccc([Mo])cc2)c2cc3c(cc2-4)C(c2ccc([Mo])cc2)(c2ccc([Mo])cc2)c2c-3sc3cc(/C=C4\C(=O)c5cc(F)c(F)cc5C4=C(C#N)C#N)sc23)C(=O)c2cc(F)c(F)cc21,[C][C][=C][C][=C][Branch2][#Branch1][#C][C][S][C][Branch2][Branch1][#C][C][=C][C][=C][Branch2][Branch1][Ring2][C][=C][C][=C][Branch1][=N][C][=C][C][=C][Branch1][Ring1][O][Sc][C][=C][Ring1][Branch2][C][S][C][Branch1][C][C][=C][C][=Ring1][=Branch1][C][Branch1][=N][C][=C][C][=C][Branch1][Ring1][O][Sc][C][=C][Ring1][Branch2][=C][Ring2][Ring1][#Branch2][S][Ring2][Ring1][=N][S][Ring2][Ring2][C][=C][C][=Ring2][Ring2][#Branch1][C][=Branch1][C][=O][C][=C][Branch1][C][Cr][S][C][Branch1][C][Cr][=C][Ring1][#Branch1][C][Ring1][N][=O][S][Ring2][Branch1][#Branch1].[N][#C][C][Branch1][Ring1][C][#N][=C][/C][=Branch2][#Branch2][Branch1][=C][/C][=C][C][S][C][=C][Branch1][#Branch1][C][=Ring1][Branch1][S][Ring1][Branch2][C][Branch1][N][C][=C][C][=C][Branch1][C][Mo][C][=C][Ring1][#Branch1][Branch1][N][C][=C][C][=C][Branch1][C][Mo][C][=C][Ring1][#Branch1][C][=C][C][=C][Branch1][Branch2][C][=C][Ring1][=Branch1][Ring2][Ring1][=Branch2][C][Branch1][N][C][=C][C][=C][Branch1][C][Mo][C][=C][Ring1][#Branch1][Branch1][N][C][=C][C][=C][Branch1][C][Mo][C][=C][Ring1][#Branch1][C][=C][Ring2][Ring1][Branch1][S][C][C][=C][Branch2][Ring1][#C][/C][=C][\C][=Branch1][C][=O][C][=C][C][Branch1][C][F][=C][Branch1][C][F][C][=C][Ring1][Branch2][C][Ring1][N][=C][Branch1][Ring1][C][#N][C][#N][S][C][Ring2][Ring1][#Branch2][=Ring2][Ring1][#Branch1][C][=Branch1][C][=O][C][=C][C][Branch1][C][F][=C][Branch1][C][F][C][=C][Ring1][Branch2][Ring2][#Branch1][Ring1],{[$]c1ccc(-c2sc(-c3ccc(-c4cc5c(-c6ccc(O[Sc])cc6)c6sc([$])cc6c(-c6ccc(O[Sc])cc6)c5s4)s3)c3c2C(=O)c2c([Cr])sc([Cr])c2C3=O)s1}.N#CC(C#N)=C1/C(=C/c2cc3sc4c(c3s2)C(c2ccc([Mo])cc2)(c2ccc([Mo])cc2)c2cc3c(cc2-4)C(c2ccc([Mo])cc2)(c2ccc([Mo])cc2)c2c-3sc3cc(/C=C4\C(=O)c5cc(F)c(F)cc5C4=C(C#N)C#N)sc23)C(=O)c2cc(F)c(F)cc21
PFOPB,IT-4F,-5.5,-3.64,1.86,-1.86,-5.670384615384615,-4.058076923076923,-1.6123076923076916,0.7441176470588237,1:1.5,CB,DIO,25.0,MoOx,ZnO,11.7,11.71062,0.89,20.4,64.5,Cc1ccc(-c2sc(-c3ccc(-c4cc5c(-c6cc(F)c(O[Sc])c(F)c6)c6sc(C)cc6c(-c6cc(F)c(O[Sc])c(F)c6)c5s4)s3)c3c2C(=O)c2c([Cr])sc([Cr])c2C3=O)s1.N#CC(C#N)=C1/C(=C/c2cc3sc4c(c3s2)C(c2ccc([Mo])cc2)(c2ccc([Mo])cc2)c2cc3c(cc2-4)C(c2ccc([Mo])cc2)(c2ccc([Mo])cc2)c2c-3sc3cc(/C=C4\C(=O)c5cc(F)c(F)cc5C4=C(C#N)C#N)sc23)C(=O)c2cc(F)c(F)cc21,[C][C][=C][C][=C][Branch2][Branch2][=N][C][S][C][Branch2][=Branch1][=N][C][=C][C][=C][Branch2][=Branch1][C][C][=C][C][=C][Branch2][Ring1][Ring1][C][=C][C][Branch1][C][F][=C][Branch1][Ring1][O][Sc][C][Branch1][C][F][=C][Ring1][#Branch2][C][S][C][Branch1][C][C][=C][C][=Ring1][=Branch1][C][Branch2][Ring1][Ring1][C][=C][C][Branch1][C][F][=C][Branch1][Ring1][O][Sc][C][Branch1][C][F][=C][Ring1][#Branch2][=C][Ring2][Ring1][=C][S][Ring2][Ring1][P][S][Ring2][Ring2][=Branch1][=C][C][=Ring2][Ring2][O][C][=Branch1][C][=O][C][=C][Branch1][C][Cr][S][C][Branch1][C][Cr][=C][Ring1][#Branch1][C][Ring1][N][=O][S][Ring2][Branch1][O].[N][#C][C][Branch1][Ring1][C][#N][=C][/C][=Branch2][#Branch2][Branch1][=C][/C][=C][C][S][C][=C][Branch1][#Branch1][C][=Ring1][Branch1][S][Ring1][Branch2][C][Branch1][N][C][=C][C][=C][Branch1][C][Mo][C][=C][Ring1][#Branch1][Branch1][N][C][=C][C][=C][Branch1][C][Mo][C][=C][Ring1][#Branch1][C][=C][C][=C][Branch1][Branch2][C][=C][Ring1][=Branch1][Ring2][Ring1][=Branch2][C][Branch1][N][C][=C][C][=C][Branch1][C][Mo][C][=C][Ring1][#Branch1][Branch1][N][C][=C][C][=C][Branch1][C][Mo][C][=C][Ring1][#Branch1][C][=C][Ring2][Ring1][Branch1][S][C][C][=C][Branch2][Ring1][#C][/C][=C][\C][=Branch1][C][=O][C][=C][C][Branch1][C][F][=C][Branch1][C][F][C][=C][Ring1][Branch2][C][Ring1][N][=C][Branch1][Ring1][C][#N][C][#N][S][C][Ring2][Ring1][#Branch2][=Ring2][Ring1][#Branch1][C][=Branch1][C][=O][C][=C][C][Branch1][C][F][=C][Branch1][C][F][C][=C][Ring1][Branch2][Ring2][#Branch1][Ring1],{[$]c1ccc(-c2sc(-c3ccc(-c4cc5c(-c6cc(F)c(O[Sc])c(F)c6)c6sc([$])cc6c(-c6cc(F)c(O[Sc])c(F)c6)c5s4)s3)c3c2C(=O)c2c([Cr])sc([Cr])c2C3=O)s1}.N#CC(C#N)=C1/C(=C/c2cc3sc4c(c3s2)C(c2ccc([Mo])cc2)(c2ccc([Mo])cc2)c2cc3c(cc2-4)C(c2ccc([Mo])cc2)(c2ccc([Mo])cc2)c2c-3sc3cc(/C=C4\C(=O)c5cc(F)c(F)cc5C4=C(C#N)C#N)sc23)C(=O)c2cc(F)c(F)cc21
P3HT,BIBT-NI,-5.057777777777777,-2.989444444444445,1.9,-2.068333333333332,-5.62,-3.65,-1.97,2.04,1:1.2,o-DCB,_,110.0,MoOx,ZnO,2.1,2.0896876,0.77,6.14,44.2,CCCCCCc1cc(-c2sc(-c3sc(-c4sc(C)cc4CCCCCC)cc3CCCCCC)cc2CCCCCC)sc1C.O=C1c2c(c(-c3ccc(-c4ccc5c6c(cccc46)C(=O)N([Cr])C5=O)s3)c3nsnc3c2-c2ccc(-c3ccc4c5c(cccc35)C(=O)N([Cr])C4=O)s2)C(=O)N1[Cr],[C][C][C][C][C][C][C][C][=C][Branch2][Ring2][P][C][S][C][Branch2][Ring1][S][C][S][C][Branch1][P][C][S][C][Branch1][C][C][=C][C][=Ring1][=Branch1][C][C][C][C][C][C][=C][C][=Ring1][P][C][C][C][C][C][C][=C][C][=Ring2][Ring1][N][C][C][C][C][C][C][S][C][=Ring2][Ring2][#Branch1][C].[O][=C][C][C][=Branch2][#Branch1][=C][=C][Branch2][Ring2][Branch2][C][=C][C][=C][Branch2][Ring1][=N][C][=C][C][=C][C][=C][Branch1][=Branch2][C][=C][C][=C][Ring1][#Branch2][Ring1][=Branch1][C][=Branch1][C][=O][N][Branch1][C][Cr][C][Ring1][N][=O][S][Ring2][Ring1][Branch1][C][=N][S][N][=C][Ring1][Branch1][C][=Ring2][Ring1][=C][C][=C][C][=C][Branch2][Ring1][=N][C][=C][C][=C][C][=C][Branch1][=Branch2][C][=C][C][=C][Ring1][#Branch2][Ring1][=Branch1][C][=Branch1][C][=O][N][Branch1][C][Cr][C][Ring1][N][=O][S][Ring2][Ring1][Branch1][C][=Branch1][C][=O][N][Ring2][Branch1][#Branch1][Cr],{CCCCCCc1cc(-c2sc(-c3sc(-c4sc([$])cc4CCCCCC)cc3CCCCCC)cc2CCCCCC)sc1[$]}.O=C1c2c(c(-c3ccc(-c4ccc5c6c(cccc46)C(=O)N([Cr])C5=O)s3)c3nsnc3c2-c2ccc(-c3ccc4c5c(cccc35)C(=O)N([Cr])C4=O)s2)C(=O)N1[Cr]
PBDT-F-2TC,IT-4F,-5.55,-3.58,1.97,-1.97,-5.670384615384615,-4.058076923076923,-1.6123076923076916,0.7441176470588237,1:1,CB,_,110.0,PEDOT:PSS,PFN-Br,10.75,10.7510949,0.91,18.9,62.51,Cc1ccc(-c2sc(-c3cc4c(-c5cc(F)c([Cr])s5)c5sc(C)cc5c(-c5cc(F)c([Cr])s5)c4s3)cc2C(=O)O[Sc])s1.N#CC(C#N)=C1/C(=C/c2cc3sc4c(c3s2)C(c2ccc([Mo])cc2)(c2ccc([Mo])cc2)c2cc3c(cc2-4)C(c2ccc([Mo])cc2)(c2ccc([Mo])cc2)c2c-3sc3cc(/C=C4\C(=O)c5cc(F)c(F)cc5C4=C(C#N)C#N)sc23)C(=O)c2cc(F)c(F)cc21,[C][C][=C][C][=C][Branch2][=Branch1][#Branch1][C][S][C][Branch2][Branch1][=Branch1][C][=C][C][=C][Branch1][=C][C][=C][C][Branch1][C][F][=C][Branch1][C][Cr][S][Ring1][#Branch1][C][S][C][Branch1][C][C][=C][C][=Ring1][=Branch1][C][Branch1][=C][C][=C][C][Branch1][C][F][=C][Branch1][C][Cr][S][Ring1][#Branch1][=C][Ring2][Ring1][Branch2][S][Ring2][Ring1][O][=C][C][=Ring2][Ring1][S][C][=Branch1][C][=O][O][Sc][S][Ring2][Ring2][=Branch2].[N][#C][C][Branch1][Ring1][C][#N][=C][/C][=Branch2][#Branch2][Branch1][=C][/C][=C][C][S][C][=C][Branch1][#Branch1][C][=Ring1][Branch1][S][Ring1][Branch2][C][Branch1][N][C][=C][C][=C][Branch1][C][Mo][C][=C][Ring1][#Branch1][Branch1][N][C][=C][C][=C][Branch1][C][Mo][C][=C][Ring1][#Branch1][C][=C][C][=C][Branch1][Branch2][C][=C][Ring1][=Branch1][Ring2][Ring1][=Branch2][C][Branch1][N][C][=C][C][=C][Branch1][C][Mo][C][=C][Ring1][#Branch1][Branch1][N][C][=C][C][=C][Branch1][C][Mo][C][=C][Ring1][#Branch1][C][=C][Ring2][Ring1][Branch1][S][C][C][=C][Branch2][Ring1][#C][/C][=C][\C][=Branch1][C][=O][C][=C][C][Branch1][C][F][=C][Branch1][C][F][C][=C][Ring1][Branch2][C][Ring1][N][=C][Branch1][Ring1][C][#N][C][#N][S][C][Ring2][Ring1][#Branch2][=Ring2][Ring1][#Branch1][C][=Branch1][C][=O][C][=C][C][Branch1][C][F][=C][Branch1][C][F][C][=C][Ring1][Branch2][Ring2][#Branch1][Ring1],{[$]c1ccc(-c2sc(-c3cc4c(-c5cc(F)c([Cr])s5)c5sc([$])cc5c(-c5cc(F)c([Cr])s5)c4s3)cc2C(=O)O[Sc])s1}.N#CC(C#N)=C1/C(=C/c2cc3sc4c(c3s2)C(c2ccc([Mo])cc2)(c2ccc([Mo])cc2)c2cc3c(cc2-4)C(c2ccc([Mo])cc2)(c2ccc([Mo])cc2)c2c-3sc3cc(/C=C4\C(=O)c5cc(F)c(F)cc5C4=C(C#N)C#N)sc23)C(=O)c2cc(F)c(F)cc21
PBDT-SF-2TC,IT-4F,-5.57,-3.59,1.98,-1.9800000000000004,-5.670384615384615,-4.058076923076923,-1.6123076923076916,0.7441176470588237,1:1,CB,_,110.0,PEDOT:PSS,PFN-Br,11.07,11.07572805,0.93,20.73,57.45,Cc1ccc(-c2sc(-c3cc4c(-c5cc(F)c(S[Cr])s5)c5sc(C)cc5c(-c5cc(F)c(S[Cr])s5)c4s3)cc2C(=O)O[Co])s1.N#CC(C#N)=C1/C(=C/c2cc3sc4c(c3s2)C(c2ccc([Mo])cc2)(c2ccc([Mo])cc2)c2cc3c(cc2-4)C(c2ccc([Mo])cc2)(c2ccc([Mo])cc2)c2c-3sc3cc(/C=C4\C(=O)c5cc(F)c(F)cc5C4=C(C#N)C#N)sc23)C(=O)c2cc(F)c(F)cc21,[C][C][=C][C][=C][Branch2][=Branch1][=Branch2][C][S][C][Branch2][Branch1][Branch2][C][=C][C][=C][Branch1][#C][C][=C][C][Branch1][C][F][=C][Branch1][Ring1][S][Cr][S][Ring1][Branch2][C][S][C][Branch1][C][C][=C][C][=Ring1][=Branch1][C][Branch1][#C][C][=C][C][Branch1][C][F][=C][Branch1][Ring1][S][Cr][S][Ring1][Branch2][=C][Ring2][Ring1][#Branch2][S][Ring2][Ring1][=N][=C][C][=Ring2][Ring2][C][C][=Branch1][C][=O][O][Co][S][Ring2][Ring2][O].[N][#C][C][Branch1][Ring1][C][#N][=C][/C][=Branch2][#Branch2][Branch1][=C][/C][=C][C][S][C][=C][Branch1][#Branch1][C][=Ring1][Branch1][S][Ring1][Branch2][C][Branch1][N][C][=C][C][=C][Branch1][C][Mo][C][=C][Ring1][#Branch1][Branch1][N][C][=C][C][=C][Branch1][C][Mo][C][=C][Ring1][#Branch1][C][=C][C][=C][Branch1][Branch2][C][=C][Ring1][=Branch1][Ring2][Ring1][=Branch2][C][Branch1][N][C][=C][C][=C][Branch1][C][Mo][C][=C][Ring1][#Branch1][Branch1][N][C][=C][C][=C][Branch1][C][Mo][C][=C][Ring1][#Branch1][C][=C][Ring2][Ring1][Branch1][S][C][C][=C][Branch2][Ring1][#C][/C][=C][\C][=Branch1][C][=O][C][=C][C][Branch1][C][F][=C][Branch1][C][F][C][=C][Ring1][Branch2][C][Ring1][N][=C][Branch1][Ring1][C][#N][C][#N][S][C][Ring2][Ring1][#Branch2][=Ring2][Ring1][#Branch1][C][=Branch1][C][=O][C][=C][C][Branch1][C][F][=C][Branch1][C][F][C][=C][Ring1][Branch2][Ring2][#Branch1][Ring1],{[$]c1ccc(-c2sc(-c3cc4c(-c5cc(F)c(S[Cr])s5)c5sc([$])cc5c(-c5cc(F)c(S[Cr])s5)c4s3)cc2C(=O)O[Co])s1}.N#CC(C#N)=C1/C(=C/c2cc3sc4c(c3s2)C(c2ccc([Mo])cc2)(c2ccc([Mo])cc2)c2cc3c(cc2-4)C(c2ccc([Mo])cc2)(c2ccc([Mo])cc2)c2c-3sc3cc(/C=C4\C(=O)c5cc(F)c(F)cc5C4=C(C#N)C#N)sc23)C(=O)c2cc(F)c(F)cc21
PDBT-F,IT-M,-5.39,-3.57,1.81,-1.82,-5.513571428571429,-3.808,-1.705571428571429,1.604285714285714,1:1,CF,DIO,100.0,PEDOT:PSS,PFN-Br,10.52,10.51813874,0.97,17.02,63.71,Cc1ccc(-c2sc(-c3ccc(-c4cc5sc6c(-c7cc(F)c([Cr])s7)c7c(sc8cc(C)sc87)c(-c7cc(F)c([Cr])s7)c6c5s4)s3)c3c2C(=O)c2c([Cr])sc([Cr])c2C3=O)s1.Cc1ccc2c(c1)C(=C(C#N)C#N)/C(=C/c1cc3sc4c(c3s1)C(c1ccc([Mo])cc1)(c1ccc([Mo])cc1)c1cc3c(cc1-4)C(c1ccc([Mo])cc1)(c1ccc([Mo])cc1)c1c-3sc3cc(/C=C4\C(=O)c5ccc(C)cc5C4=C(C#N)C#N)sc13)C2=O,[C][C][=C][C][=C][Branch2][Branch2][=C][C][S][C][Branch2][=Branch1][=C][C][=C][C][=C][Branch2][=Branch1][Ring1][C][=C][C][S][C][=C][Branch1][=C][C][=C][C][Branch1][C][F][=C][Branch1][C][Cr][S][Ring1][#Branch1][C][=C][Branch1][=C][S][C][C][=C][Branch1][C][C][S][C][=Ring1][=Branch1][Ring1][=Branch2][C][Branch1][=C][C][=C][C][Branch1][C][F][=C][Branch1][C][Cr][S][Ring1][#Branch1][=C][Ring2][Ring1][O][C][=Ring2][Ring1][=C][S][Ring2][Ring1][P][S][Ring2][Ring2][=Branch1][=C][C][=Ring2][Ring2][O][C][=Branch1][C][=O][C][=C][Branch1][C][Cr][S][C][Branch1][C][Cr][=C][Ring1][#Branch1][C][Ring1][N][=O][S][Ring2][Branch1][O].[C][C][=C][C][=C][C][=Branch1][Ring2][=C][Ring1][=Branch1][C][=Branch1][Branch2][=C][Branch1][Ring1][C][#N][C][#N][/C][=Branch2][#Branch2][C][=C][/C][=C][C][S][C][=C][Branch1][#Branch1][C][=Ring1][Branch1][S][Ring1][Branch2][C][Branch1][N][C][=C][C][=C][Branch1][C][Mo][C][=C][Ring1][#Branch1][Branch1][N][C][=C][C][=C][Branch1][C][Mo][C][=C][Ring1][#Branch1][C][=C][C][=C][Branch1][Branch2][C][=C][Ring1][=Branch1][Ring2][Ring1][=Branch2][C][Branch1][N][C][=C][C][=C][Branch1][C][Mo][C][=C][Ring1][#Branch1][Branch1][N][C][=C][C][=C][Branch1][C][Mo][C][=C][Ring1][#Branch1][C][=C][Ring2][Ring1][Branch1][S][C][C][=C][Branch2][Ring1][N][/C][=C][\C][=Branch1][C][=O][C][=C][C][=C][Branch1][C][C][C][=C][Ring1][#Branch1][C][Ring1][O][=C][Branch1][Ring1][C][#N][C][#N][S][C][Ring2][Ring1][=Branch2][=Ring2][Ring1][=Branch1][C][Ring2][=Branch1][P][=O],{[$]c1ccc(-c2sc(-c3ccc(-c4cc5sc6c(-c7cc(F)c([Cr])s7)c7c(sc8cc([$])sc87)c(-c7cc(F)c([Cr])s7)c6c5s4)s3)c3c2C(=O)c2c([Cr])sc([Cr])c2C3=O)s1}.Cc1ccc2c(c1)C(=C(C#N)C#N)/C(=C/c1cc3sc4c(c3s1)C(c1ccc([Mo])cc1)(c1ccc([Mo])cc1)c1cc3c(cc1-4)C(c1ccc([Mo])cc1)(c1ccc([Mo])cc1)c1c-3sc3cc(/C=C4\C(=O)c5ccc(C)cc5C4=C(C#N)C#N)sc13)C2=O
PDBT-F,IDIC,-5.39,-3.57,1.81,-1.82,-5.705,-3.996875,-1.708125,1.6358333333333337,1:1,CF,DIO,100.0,PEDOT:PSS,PFN-Br,11.02,10.9791825,0.87,17.65,71.5,Cc1ccc(-c2sc(-c3ccc(-c4cc5sc6c(-c7cc(F)c([Cr])s7)c7c(sc8cc(C)sc87)c(-c7cc(F)c([Cr])s7)c6c5s4)s3)c3c2C(=O)c2c([Cr])sc([Cr])c2C3=O)s1.N#CC(C#N)=C1/C(=C/c2cc3c(s2)-c2cc4c(cc2C3([Mo])[Mo])-c2sc(/C=C3\C(=O)c5ccccc5C3=C(C#N)C#N)cc2C4([Mo])[Mo])C(=O)c2ccccc21,[C][C][=C][C][=C][Branch2][Branch2][=C][C][S][C][Branch2][=Branch1][=C][C][=C][C][=C][Branch2][=Branch1][Ring1][C][=C][C][S][C][=C][Branch1][=C][C][=C][C][Branch1][C][F][=C][Branch1][C][Cr][S][Ring1][#Branch1][C][=C][Branch1][=C][S][C][C][=C][Branch1][C][C][S][C][=Ring1][=Branch1][Ring1][=Branch2][C][Branch1][=C][C][=C][C][Branch1][C][F][=C][Branch1][C][Cr][S][Ring1][#Branch1][=C][Ring2][Ring1][O][C][=Ring2][Ring1][=C][S][Ring2][Ring1][P][S][Ring2][Ring2][=Branch1][=C][C][=Ring2][Ring2][O][C][=Branch1][C][=O][C][=C][Branch1][C][Cr][S][C][Branch1][C][Cr][=C][Ring1][#Branch1][C][Ring1][N][=O][S][Ring2][Branch1][O].[N][#C][C][Branch1][Ring1][C][#N][=C][/C][=Branch2][=Branch1][#Branch1][=C][/C][=C][C][=C][Branch1][Ring2][S][Ring1][Branch1][C][=C][C][=C][Branch1][N][C][=C][Ring1][=Branch1][C][Ring1][#Branch2][Branch1][C][Mo][Mo][C][S][C][Branch2][Ring1][=Branch2][/C][=C][\C][=Branch1][C][=O][C][=C][C][=C][C][=C][Ring1][=Branch1][C][Ring1][#Branch2][=C][Branch1][Ring1][C][#N][C][#N][=C][C][=Ring2][Ring1][Branch1][C][Ring2][Ring1][=N][Branch1][C][Mo][Mo][C][=Branch1][C][=O][C][=C][C][=C][C][=C][Ring1][=Branch1][Ring2][Ring2][P],{[$]c1ccc(-c2sc(-c3ccc(-c4cc5sc6c(-c7cc(F)c([Cr])s7)c7c(sc8cc([$])sc87)c(-c7cc(F)c([Cr])s7)c6c5s4)s3)c3c2C(=O)c2c([Cr])sc([Cr])c2C3=O)s1}.N#CC(C#N)=C1/C(=C/c2cc3c(s2)-c2cc4c(cc2C3([Mo])[Mo])-c2sc(/C=C3\C(=O)c5ccccc5C3=C(C#N)C#N)cc2C4([Mo])[Mo])C(=O)c2ccccc21