Donor,Acceptor,HOMO_D_eV,LUMO_D_eV,HOMO_A_eV,LUMO_A_eV,D_A_ratio_m_m,solvent,solvent_additive,annealing_temperature,hole_contact_layer,electron_contact_layer,PCE_percent,calc_PCE_percent,Voc_V,Jsc_mA_cm_pow_neg2,FF_percent,DA_SMILES,DA_SELFIES,DA_BigSMILES
PBDB-T-SF,NCBDT-4Cl,-5.41,-3.62,-5.6,-4.02,1.0,CF,DIO,110.0,PEDOT:PSS,PDINO,14.1,14.13,0.851,22.35,74.3,CCCCC(CC)Cc1sc(-c2c3cc(-c4ccc(-c5sc(-c6ccc(C)s6)c6c5C(=O)c5c(CC(CC)CCCC)sc(CC(CC)CCCC)c5C6=O)s4)sc3c(-c3cc(F)c(CC(CC)CCCC)s3)c3cc(C)sc23)cc1F.CCCCCCCCc1c2sc3c(c2c(CCCCCCCC)c2sc4c(c12)C(c1ccc(CCCCCC)cc1)(c1ccc(CCCCCC)cc1)c1cc(C=C2C(=O)c5cc(Cl)c(Cl)cc5C2=C(C#N)C#N)sc1-4)C(c1ccc(CCCCCC)cc1)(c1ccc(CCCCCC)cc1)c1cc(C=C2C(=O)c4cc(Cl)c(Cl)cc4C2=C(C#N)C#N)sc1-3,[C][C][C][C][C][Branch1][Ring1][C][C][C][C][S][C][Branch2][=Branch2][O][C][=C][C][=C][Branch2][=Branch1][Branch2][C][=C][C][=C][Branch2][Branch1][=N][C][S][C][Branch1][O][C][=C][C][=C][Branch1][C][C][S][Ring1][=Branch1][=C][C][=Ring1][O][C][=Branch1][C][=O][C][=C][Branch1][O][C][C][Branch1][Ring1][C][C][C][C][C][C][S][C][Branch1][O][C][C][Branch1][Ring1][C][C][C][C][C][C][=C][Ring2][Ring1][Branch1][C][Ring2][Ring1][#Branch2][=O][S][Ring2][Ring2][=Branch2][S][C][Ring2][Ring2][=C][=C][Branch2][Ring1][#Branch1][C][=C][C][Branch1][C][F][=C][Branch1][O][C][C][Branch1][Ring1][C][C][C][C][C][C][S][Ring1][=C][C][C][=C][Branch1][C][C][S][C][Ring2][=Branch1][Ring2][=Ring1][=Branch1][=C][C][=Ring2][=Branch1][=Branch2][F].[C][C][C][C][C][C][C][C][C][=C][S][C][=C][Branch2][Branch2][N][C][Ring1][Branch1][=C][Branch1][=Branch2][C][C][C][C][C][C][C][C][C][S][C][=C][Branch1][#Branch1][C][Ring2][Ring1][Ring2][=Ring1][Branch1][C][Branch1][P][C][=C][C][=C][Branch1][#Branch1][C][C][C][C][C][C][C][=C][Ring1][N][Branch1][P][C][=C][C][=C][Branch1][#Branch1][C][C][C][C][C][C][C][=C][Ring1][N][C][C][=C][Branch2][Ring1][#C][C][=C][C][=Branch1][C][=O][C][=C][C][Branch1][C][Cl][=C][Branch1][C][Cl][C][=C][Ring1][Branch2][C][Ring1][N][=C][Branch1][Ring1][C][#N][C][#N][S][C][=Ring2][Ring1][#Branch1][Ring2][Branch1][Ring1][C][Branch1][P][C][=C][C][=C][Branch1][#Branch1][C][C][C][C][C][C][C][=C][Ring1][N][Branch1][P][C][=C][C][=C][Branch1][#Branch1][C][C][C][C][C][C][C][=C][Ring1][N][C][C][=C][Branch2][Ring1][#C][C][=C][C][=Branch1][C][=O][C][=C][C][Branch1][C][Cl][=C][Branch1][C][Cl][C][=C][Ring1][Branch2][C][Ring1][N][=C][Branch1][Ring1][C][#N][C][#N][S][C][=Ring2][Ring1][#Branch1][Ring2][Branch2][P],{CCCCC(CC)Cc1sc(-c2c3cc(-c4ccc(-c5sc(-c6ccc([$])s6)c6c5C(=O)c5c(CC(CC)CCCC)sc(CC(CC)CCCC)c5C6=O)s4)sc3c(-c3cc(F)c(CC(CC)CCCC)s3)c3cc([$])sc23)cc1F}.CCCCCCCCc1c2sc3c(c2c(CCCCCCCC)c2sc4c(c12)C(c1ccc(CCCCCC)cc1)(c1ccc(CCCCCC)cc1)c1cc(C=C2C(=O)c5cc(Cl)c(Cl)cc5C2=C(C#N)C#N)sc1-4)C(c1ccc(CCCCCC)cc1)(c1ccc(CCCCCC)cc1)c1cc(C=C2C(=O)c4cc(Cl)c(Cl)cc4C2=C(C#N)C#N)sc1-3
PBDB-T,ITC6-IC,-5.297714285714285,-3.4170000000000003,-5.73,-3.92,1.0,CB,_,125.0,MoOx,ZnO,11.61,11.62,0.97,16.41,73.0,CCCCC(CC)Cc1ccc(-c2c3cc(-c4ccc(-c5sc(-c6ccc(C)s6)c6c5C(=O)c5c(CC(CC)CCCC)sc(CC(CC)CCCC)c5C6=O)s4)sc3c(-c3ccc(CC(CC)CCCC)s3)c3cc(C)sc23)s1.CCCCCCc1ccc(C2(c3ccc(CCCCCC)cc3)c3cc4c(cc3-c3sc5c(CCCCCC)c(/C=C6\C(=O)c7ccccc7C6=C(C#N)C#N)sc5c32)C(c2ccc(CCCCCC)cc2)(c2ccc(CCCCCC)cc2)c2c-4sc3c(CCCCCC)c(/C=C4\C(=O)c5ccccc5C4=C(C#N)C#N)sc23)cc1,[C][C][C][C][C][Branch1][Ring1][C][C][C][C][=C][C][=C][Branch2][=Branch2][Branch2][C][=C][C][=C][Branch2][=Branch1][Branch2][C][=C][C][=C][Branch2][Branch1][=N][C][S][C][Branch1][O][C][=C][C][=C][Branch1][C][C][S][Ring1][=Branch1][=C][C][=Ring1][O][C][=Branch1][C][=O][C][=C][Branch1][O][C][C][Branch1][Ring1][C][C][C][C][C][C][S][C][Branch1][O][C][C][Branch1][Ring1][C][C][C][C][C][C][=C][Ring2][Ring1][Branch1][C][Ring2][Ring1][#Branch2][=O][S][Ring2][Ring2][=Branch2][S][C][Ring2][Ring2][=C][=C][Branch2][Ring1][Ring2][C][=C][C][=C][Branch1][O][C][C][Branch1][Ring1][C][C][C][C][C][C][S][Ring1][=N][C][C][=C][Branch1][C][C][S][C][Ring2][=Branch1][Ring1][=Ring1][=Branch1][S][Ring2][=Branch1][Branch2].[C][C][C][C][C][C][C][=C][C][=C][Branch2][N][N][C][Branch1][P][C][=C][C][=C][Branch1][#Branch1][C][C][C][C][C][C][C][=C][Ring1][N][C][=C][C][=C][Branch2][Branch1][=Branch2][C][=C][Ring1][=Branch1][C][S][C][C][Branch1][#Branch1][C][C][C][C][C][C][=C][Branch2][Ring1][=Branch2][/C][=C][\C][=Branch1][C][=O][C][=C][C][=C][C][=C][Ring1][=Branch1][C][Ring1][#Branch2][=C][Branch1][Ring1][C][#N][C][#N][S][C][=Ring2][Ring1][O][C][=Ring2][Ring1][=C][Ring2][Ring2][P][C][Branch1][P][C][=C][C][=C][Branch1][#Branch1][C][C][C][C][C][C][C][=C][Ring1][N][Branch1][P][C][=C][C][=C][Branch1][#Branch1][C][C][C][C][C][C][C][=C][Ring1][N][C][=C][Ring2][Branch1][=N][S][C][C][Branch1][#Branch1][C][C][C][C][C][C][=C][Branch2][Ring1][=Branch2][/C][=C][\C][=Branch1][C][=O][C][=C][C][=C][C][=C][Ring1][=Branch1][C][Ring1][#Branch2][=C][Branch1][Ring1][C][#N][C][#N][S][C][Ring2][Ring1][=C][=Ring2][Ring1][O][C][=C][Ring2][Branch2][=C],{CCCCC(CC)Cc1ccc(-c2c3cc(-c4ccc(-c5sc(-c6ccc([$])s6)c6c5C(=O)c5c(CC(CC)CCCC)sc(CC(CC)CCCC)c5C6=O)s4)sc3c(-c3ccc(CC(CC)CCCC)s3)c3cc([$])sc23)s1}.CCCCCCc1ccc(C2(c3ccc(CCCCCC)cc3)c3cc4c(cc3-c3sc5c(CCCCCC)c(/C=C6\C(=O)c7ccccc7C6=C(C#N)C#N)sc5c32)C(c2ccc(CCCCCC)cc2)(c2ccc(CCCCCC)cc2)c2c-4sc3c(CCCCCC)c(/C=C4\C(=O)c5ccccc5C4=C(C#N)C#N)sc23)cc1
PBDBT-2F,ITIC,-5.5,-3.75,-5.574146341463415,-3.915,1.0,CB,DIO,25.0,PEDOT:PSS,PFN-Br,10.64,10.64,1.0,16.1,66.07,CCCCC(CC)Cc1sc(-c2c3cc(-c4ccc(-c5sc(-c6ccc(C)s6)c6c5C(=O)c5c(CC(CC)CCCC)sc(CC(CC)CCCC)c5C6=O)s4)sc3c(-c3cc(F)c(CC(CC)CCCC)s3)c3cc(C)sc23)cc1F.CCCCCCc1ccc(C2(c3ccc(CCCCCC)cc3)c3cc4c(cc3-c3sc5cc(/C=C6\C(=O)c7ccccc7C6=C(C#N)C#N)sc5c32)C(c2ccc(CCCCCC)cc2)(c2ccc(CCCCCC)cc2)c2c-4sc3cc(/C=C4\C(=O)c5ccccc5C4=C(C#N)C#N)sc23)cc1,[C][C][C][C][C][Branch1][Ring1][C][C][C][C][S][C][Branch2][=Branch2][O][C][=C][C][=C][Branch2][=Branch1][Branch2][C][=C][C][=C][Branch2][Branch1][=N][C][S][C][Branch1][O][C][=C][C][=C][Branch1][C][C][S][Ring1][=Branch1][=C][C][=Ring1][O][C][=Branch1][C][=O][C][=C][Branch1][O][C][C][Branch1][Ring1][C][C][C][C][C][C][S][C][Branch1][O][C][C][Branch1][Ring1][C][C][C][C][C][C][=C][Ring2][Ring1][Branch1][C][Ring2][Ring1][#Branch2][=O][S][Ring2][Ring2][=Branch2][S][C][Ring2][Ring2][=C][=C][Branch2][Ring1][#Branch1][C][=C][C][Branch1][C][F][=C][Branch1][O][C][C][Branch1][Ring1][C][C][C][C][C][C][S][Ring1][=C][C][C][=C][Branch1][C][C][S][C][Ring2][=Branch1][Ring2][=Ring1][=Branch1][=C][C][=Ring2][=Branch1][=Branch2][F].[C][C][C][C][C][C][C][=C][C][=C][Branch2][O][N][C][Branch1][P][C][=C][C][=C][Branch1][#Branch1][C][C][C][C][C][C][C][=C][Ring1][N][C][=C][C][=C][Branch2][Ring2][P][C][=C][Ring1][=Branch1][C][S][C][C][=C][Branch2][Ring1][=Branch2][/C][=C][\C][=Branch1][C][=O][C][=C][C][=C][C][=C][Ring1][=Branch1][C][Ring1][#Branch2][=C][Branch1][Ring1][C][#N][C][#N][S][C][=Ring2][Ring1][Branch1][C][=Ring2][Ring1][Branch2][Ring2][Ring2][O][C][Branch1][P][C][=C][C][=C][Branch1][#Branch1][C][C][C][C][C][C][C][=C][Ring1][N][Branch1][P][C][=C][C][=C][Branch1][#Branch1][C][C][C][C][C][C][C][=C][Ring1][N][C][=C][Ring2][Branch1][#Branch1][S][C][C][=C][Branch2][Ring1][=Branch2][/C][=C][\C][=Branch1][C][=O][C][=C][C][=C][C][=C][Ring1][=Branch1][C][Ring1][#Branch2][=C][Branch1][Ring1][C][#N][C][#N][S][C][Ring2][Ring1][Branch2][=Ring2][Ring1][Branch1][C][=C][Ring2][Branch2][C],{CCCCC(CC)Cc1sc(-c2c3cc(-c4ccc(-c5sc(-c6ccc([$])s6)c6c5C(=O)c5c(CC(CC)CCCC)sc(CC(CC)CCCC)c5C6=O)s4)sc3c(-c3cc(F)c(CC(CC)CCCC)s3)c3cc([$])sc23)cc1F}.CCCCCCc1ccc(C2(c3ccc(CCCCCC)cc3)c3cc4c(cc3-c3sc5cc(/C=C6\C(=O)c7ccccc7C6=C(C#N)C#N)sc5c32)C(c2ccc(CCCCCC)cc2)(c2ccc(CCCCCC)cc2)c2c-4sc3cc(/C=C4\C(=O)c5ccccc5C4=C(C#N)C#N)sc23)cc1
PBDB-T,ATT-6,-5.297714285714285,-3.4170000000000003,-5.45,-3.61,1.0,CF,_,160.0,PEDOT:PSS,PDINO,8.22,8.36,0.96,14.66,59.37,CCCCC(CC)Cc1ccc(-c2c3cc(-c4ccc(-c5sc(-c6ccc(C)s6)c6c5C(=O)c5c(CC(CC)CCCC)sc(CC(CC)CCCC)c5C6=O)s4)sc3c(-c3ccc(CC(CC)CCCC)s3)c3cc(C)sc23)s1.CCCCCCCCOC(=O)c1cc2c(/C=c3/sc(=C(C#N)C#N)n(CC)c3=O)sc(-c3cc4c(s3)-c3cc5c(cc3C4(c3cccc(CCCCCC)c3)c3cccc(CCCCCC)c3)-c3sc(-c4sc(/C=c6/sc(=C(C#N)C#N)n(CC)c6=O)c6cc(C(=O)OCCCCCCCC)sc46)cc3C5(c3cccc(CCCCCC)c3)c3cccc(CCCCCC)c3)c2s1,[C][C][C][C][C][Branch1][Ring1][C][C][C][C][=C][C][=C][Branch2][=Branch2][Branch2][C][=C][C][=C][Branch2][=Branch1][Branch2][C][=C][C][=C][Branch2][Branch1][=N][C][S][C][Branch1][O][C][=C][C][=C][Branch1][C][C][S][Ring1][=Branch1][=C][C][=Ring1][O][C][=Branch1][C][=O][C][=C][Branch1][O][C][C][Branch1][Ring1][C][C][C][C][C][C][S][C][Branch1][O][C][C][Branch1][Ring1][C][C][C][C][C][C][=C][Ring2][Ring1][Branch1][C][Ring2][Ring1][#Branch2][=O][S][Ring2][Ring2][=Branch2][S][C][Ring2][Ring2][=C][=C][Branch2][Ring1][Ring2][C][=C][C][=C][Branch1][O][C][C][Branch1][Ring1][C][C][C][C][C][C][S][Ring1][=N][C][C][=C][Branch1][C][C][S][C][Ring2][=Branch1][Ring1][=Ring1][=Branch1][S][Ring2][=Branch1][Branch2].[C][C][C][C][C][C][C][C][O][C][=Branch1][C][=O][C][=C][C][=C][Branch2][Ring1][#Branch1][/C][=C][/S][C][=Branch1][Branch2][=C][Branch1][Ring1][C][#N][C][#N][N][Branch1][Ring1][C][C][C][Ring1][N][=O][S][C][Branch2][O][S][C][=C][C][=C][Branch1][Ring2][S][Ring1][Branch1][C][=C][C][=C][Branch2][Ring2][#Branch2][C][=C][Ring1][=Branch1][C][Ring1][#Branch2][Branch1][P][C][=C][C][=C][C][Branch1][#Branch1][C][C][C][C][C][C][=C][Ring1][N][C][=C][C][=C][C][Branch1][#Branch1][C][C][C][C][C][C][=C][Ring1][N][C][S][C][Branch2][Branch1][=Branch1][C][S][C][Branch2][Ring1][#Branch1][/C][=C][/S][C][=Branch1][Branch2][=C][Branch1][Ring1][C][#N][C][#N][N][Branch1][Ring1][C][C][C][Ring1][N][=O][=C][C][=C][Branch1][=C][C][=Branch1][C][=O][O][C][C][C][C][C][C][C][C][S][C][=Ring2][Ring1][P][Ring1][S][=C][C][=Ring2][Ring2][=Branch1][C][Ring2][=Branch1][Ring2][Branch1][P][C][=C][C][=C][C][Branch1][#Branch1][C][C][C][C][C][C][=C][Ring1][N][C][=C][C][=C][C][Branch1][#Branch1][C][C][C][C][C][C][=C][Ring1][N][=C][Ring2][=Branch2][=Branch1][S][Ring2][=Branch2][=Branch2],{CCCCC(CC)Cc1ccc(-c2c3cc(-c4ccc(-c5sc(-c6ccc([$])s6)c6c5C(=O)c5c(CC(CC)CCCC)sc(CC(CC)CCCC)c5C6=O)s4)sc3c(-c3ccc(CC(CC)CCCC)s3)c3cc([$])sc23)s1}.CCCCCCCCOC(=O)c1cc2c(/C=c3/sc(=C(C#N)C#N)n(CC)c3=O)sc(-c3cc4c(s3)-c3cc5c(cc3C4(c3cccc(CCCCCC)c3)c3cccc(CCCCCC)c3)-c3sc(-c4sc(/C=c6/sc(=C(C#N)C#N)n(CC)c6=O)c6cc(C(=O)OCCCCCCCC)sc46)cc3C5(c3cccc(CCCCCC)c3)c3cccc(CCCCCC)c3)c2s1
PBDB-T,Y1,-5.297714285714285,-3.4170000000000003,-5.45,-3.95,1.0,CB,CN,25.0,MoOx,ZnO,13.42,13.49,0.87,22.44,69.1,CCCCC(CC)Cc1ccc(-c2c3cc(-c4ccc(-c5sc(-c6ccc(C)s6)c6c5C(=O)c5c(CC(CC)CCCC)sc(CC(CC)CCCC)c5C6=O)s4)sc3c(-c3ccc(CC(CC)CCCC)s3)c3cc(C)sc23)s1.CCCCC(CC)Cn1nc2c(n1)c1c3sc4cc(/C=C5\C(=O)c6ccccc6C5=C(C#N)C#N)sc4c3n(CC(CC)CCCC)c1c1c2c2sc3cc(/C=C4\C(=O)c5ccccc5C4=C(C#N)C#N)sc3c2n1CC(CC)CCCC,[C][C][C][C][C][Branch1][Ring1][C][C][C][C][=C][C][=C][Branch2][=Branch2][Branch2][C][=C][C][=C][Branch2][=Branch1][Branch2][C][=C][C][=C][Branch2][Branch1][=N][C][S][C][Branch1][O][C][=C][C][=C][Branch1][C][C][S][Ring1][=Branch1][=C][C][=Ring1][O][C][=Branch1][C][=O][C][=C][Branch1][O][C][C][Branch1][Ring1][C][C][C][C][C][C][S][C][Branch1][O][C][C][Branch1][Ring1][C][C][C][C][C][C][=C][Ring2][Ring1][Branch1][C][Ring2][Ring1][#Branch2][=O][S][Ring2][Ring2][=Branch2][S][C][Ring2][Ring2][=C][=C][Branch2][Ring1][Ring2][C][=C][C][=C][Branch1][O][C][C][Branch1][Ring1][C][C][C][C][C][C][S][Ring1][=N][C][C][=C][Branch1][C][C][S][C][Ring2][=Branch1][Ring1][=Ring1][=Branch1][S][Ring2][=Branch1][Branch2].[C][C][C][C][C][Branch1][Ring1][C][C][C][N][N][=C][C][=Branch1][Ring2][=N][Ring1][Branch1][C][C][S][C][C][=C][Branch2][Ring1][=Branch2][/C][=C][\C][=Branch1][C][=O][C][=C][C][=C][C][=C][Ring1][=Branch1][C][Ring1][#Branch2][=C][Branch1][Ring1][C][#N][C][#N][S][C][=Ring2][Ring1][Branch1][C][=Ring2][Ring1][Branch2][N][Branch1][O][C][C][Branch1][Ring1][C][C][C][C][C][C][C][=Ring2][Ring2][Ring1][C][=C][Ring2][Ring2][Branch2][C][S][C][C][=C][Branch2][Ring1][=Branch2][/C][=C][\C][=Branch1][C][=O][C][=C][C][=C][C][=C][Ring1][=Branch1][C][Ring1][#Branch2][=C][Branch1][Ring1][C][#N][C][#N][S][C][=Ring2][Ring1][Branch1][C][=Ring2][Ring1][Branch2][N][Ring2][Ring1][O][C][C][Branch1][Ring1][C][C][C][C][C][C],{CCCCC(CC)Cc1ccc(-c2c3cc(-c4ccc(-c5sc(-c6ccc([$])s6)c6c5C(=O)c5c(CC(CC)CCCC)sc(CC(CC)CCCC)c5C6=O)s4)sc3c(-c3ccc(CC(CC)CCCC)s3)c3cc([$])sc23)s1}.CCCCC(CC)Cn1nc2c(n1)c1c3sc4cc(/C=C5\C(=O)c6ccccc6C5=C(C#N)C#N)sc4c3n(CC(CC)CCCC)c1c1c2c2sc3cc(/C=C4\C(=O)c5ccccc5C4=C(C#N)C#N)sc3c2n1CC(CC)CCCC
PBDB-T,Y2,-5.297714285714285,-3.4170000000000003,-5.43,-4.04,1.0,CB,CN,25.0,MoOx,ZnO,13.4,13.41,0.82,23.56,69.4,CCCCC(CC)Cc1ccc(-c2c3cc(-c4ccc(-c5sc(-c6ccc(C)s6)c6c5C(=O)c5c(CC(CC)CCCC)sc(CC(CC)CCCC)c5C6=O)s4)sc3c(-c3ccc(CC(CC)CCCC)s3)c3cc(C)sc23)s1.CCCCC(CC)Cn1nc2c(n1)c1c3sc4cc(/C=C5\C(=O)c6cscc6C5=C(C#N)C#N)sc4c3n(CC(CC)CCCC)c1c1c2c2sc3cc(/C=C4\C(=O)c5cscc5C4=C(C#N)C#N)sc3c2n1CC(CC)CCCC,[C][C][C][C][C][Branch1][Ring1][C][C][C][C][=C][C][=C][Branch2][=Branch2][Branch2][C][=C][C][=C][Branch2][=Branch1][Branch2][C][=C][C][=C][Branch2][Branch1][=N][C][S][C][Branch1][O][C][=C][C][=C][Branch1][C][C][S][Ring1][=Branch1][=C][C][=Ring1][O][C][=Branch1][C][=O][C][=C][Branch1][O][C][C][Branch1][Ring1][C][C][C][C][C][C][S][C][Branch1][O][C][C][Branch1][Ring1][C][C][C][C][C][C][=C][Ring2][Ring1][Branch1][C][Ring2][Ring1][#Branch2][=O][S][Ring2][Ring2][=Branch2][S][C][Ring2][Ring2][=C][=C][Branch2][Ring1][Ring2][C][=C][C][=C][Branch1][O][C][C][Branch1][Ring1][C][C][C][C][C][C][S][Ring1][=N][C][C][=C][Branch1][C][C][S][C][Ring2][=Branch1][Ring1][=Ring1][=Branch1][S][Ring2][=Branch1][Branch2].[C][C][C][C][C][Branch1][Ring1][C][C][C][N][N][=C][C][=Branch1][Ring2][=N][Ring1][Branch1][C][C][S][C][C][=C][Branch2][Ring1][Branch2][/C][=C][\C][=Branch1][C][=O][C][=C][S][C][=C][Ring1][Branch1][C][Ring1][=Branch2][=C][Branch1][Ring1][C][#N][C][#N][S][C][=Ring2][Ring1][Ring2][C][=Ring2][Ring1][#Branch1][N][Branch1][O][C][C][Branch1][Ring1][C][C][C][C][C][C][C][=Ring2][Ring2][C][C][=C][Ring2][Ring2][#Branch1][C][S][C][C][=C][Branch2][Ring1][Branch2][/C][=C][\C][=Branch1][C][=O][C][=C][S][C][=C][Ring1][Branch1][C][Ring1][=Branch2][=C][Branch1][Ring1][C][#N][C][#N][S][C][=Ring2][Ring1][Ring2][C][=Ring2][Ring1][#Branch1][N][Ring2][Ring1][#Branch2][C][C][Branch1][Ring1][C][C][C][C][C][C],{CCCCC(CC)Cc1ccc(-c2c3cc(-c4ccc(-c5sc(-c6ccc([$])s6)c6c5C(=O)c5c(CC(CC)CCCC)sc(CC(CC)CCCC)c5C6=O)s4)sc3c(-c3ccc(CC(CC)CCCC)s3)c3cc([$])sc23)s1}.CCCCC(CC)Cn1nc2c(n1)c1c3sc4cc(/C=C5\C(=O)c6cscc6C5=C(C#N)C#N)sc4c3n(CC(CC)CCCC)c1c1c2c2sc3cc(/C=C4\C(=O)c5cscc5C4=C(C#N)C#N)sc3c2n1CC(CC)CCCC
PBDB-T,BDTC-4Cl,-5.297714285714285,-3.4170000000000003,-5.35,-3.75,1.0,CF,_,25.0,PEDOT:PSS,PDINO,9.54,9.54,0.864,18.56,59.5,CCCCC(CC)Cc1ccc(-c2c3cc(-c4ccc(-c5sc(-c6ccc(C)s6)c6c5C(=O)c5c(CC(CC)CCCC)sc(CC(CC)CCCC)c5C6=O)s4)sc3c(-c3ccc(CC(CC)CCCC)s3)c3cc(C)sc23)s1.CCCCCCCCC1(CCCCCCCC)c2cc(/C=C3\C(=O)c4cc(Cl)c(Cl)cc4C3=C(C#N)C#N)sc2-c2sc(-c3cc4c(-c5ccc(CC(CC)CCCC)s5)c5sc(-c6cc7c(s6)-c6sc(/C=C8\C(=O)c9cc(Cl)c(Cl)cc9C8=C(C#N)C#N)cc6C7(CCCCCCCC)CCCCCCCC)cc5c(-c5ccc(CC(CC)CCCC)s5)c4s3)cc21,[C][C][C][C][C][Branch1][Ring1][C][C][C][C][=C][C][=C][Branch2][=Branch2][Branch2][C][=C][C][=C][Branch2][=Branch1][Branch2][C][=C][C][=C][Branch2][Branch1][=N][C][S][C][Branch1][O][C][=C][C][=C][Branch1][C][C][S][Ring1][=Branch1][=C][C][=Ring1][O][C][=Branch1][C][=O][C][=C][Branch1][O][C][C][Branch1][Ring1][C][C][C][C][C][C][S][C][Branch1][O][C][C][Branch1][Ring1][C][C][C][C][C][C][=C][Ring2][Ring1][Branch1][C][Ring2][Ring1][#Branch2][=O][S][Ring2][Ring2][=Branch2][S][C][Ring2][Ring2][=C][=C][Branch2][Ring1][Ring2][C][=C][C][=C][Branch1][O][C][C][Branch1][Ring1][C][C][C][C][C][C][S][Ring1][=N][C][C][=C][Branch1][C][C][S][C][Ring2][=Branch1][Ring1][=Ring1][=Branch1][S][Ring2][=Branch1][Branch2].[C][C][C][C][C][C][C][C][C][Branch1][=Branch2][C][C][C][C][C][C][C][C][C][C][=C][Branch2][Ring1][#C][/C][=C][\C][=Branch1][C][=O][C][=C][C][Branch1][C][Cl][=C][Branch1][C][Cl][C][=C][Ring1][Branch2][C][Ring1][N][=C][Branch1][Ring1][C][#N][C][#N][S][C][=Ring2][Ring1][#Branch1][C][S][C][Branch2][#Branch2][=N][C][=C][C][=C][Branch2][Ring1][Ring2][C][=C][C][=C][Branch1][O][C][C][Branch1][Ring1][C][C][C][C][C][C][S][Ring1][=N][C][S][C][Branch2][=Branch1][=Branch2][C][=C][C][=C][Branch1][Ring2][S][Ring1][Branch1][C][S][C][Branch2][Ring1][#C][/C][=C][\C][=Branch1][C][=O][C][=C][C][Branch1][C][Cl][=C][Branch1][C][Cl][C][=C][Ring1][Branch2][C][Ring1][N][=C][Branch1][Ring1][C][#N][C][#N][=C][C][=Ring2][Ring1][#Branch1][C][Ring2][Ring1][O][Branch1][=Branch2][C][C][C][C][C][C][C][C][C][C][C][C][C][C][C][C][=C][C][=Ring2][Branch1][C][C][Branch2][Ring1][Ring2][C][=C][C][=C][Branch1][O][C][C][Branch1][Ring1][C][C][C][C][C][C][S][Ring1][=N][=C][Ring2][=Branch1][S][S][Ring2][#Branch1][Ring1][=C][C][=Ring2][#Branch1][Branch2][Ring2][=Branch2][Branch2],{CCCCC(CC)Cc1ccc(-c2c3cc(-c4ccc(-c5sc(-c6ccc([$])s6)c6c5C(=O)c5c(CC(CC)CCCC)sc(CC(CC)CCCC)c5C6=O)s4)sc3c(-c3ccc(CC(CC)CCCC)s3)c3cc([$])sc23)s1}.CCCCCCCCC1(CCCCCCCC)c2cc(/C=C3\C(=O)c4cc(Cl)c(Cl)cc4C3=C(C#N)C#N)sc2-c2sc(-c3cc4c(-c5ccc(CC(CC)CCCC)s5)c5sc(-c6cc7c(s6)-c6sc(/C=C8\C(=O)c9cc(Cl)c(Cl)cc9C8=C(C#N)C#N)cc6C7(CCCCCCCC)CCCCCCCC)cc5c(-c5ccc(CC(CC)CCCC)s5)c4s3)cc21
PTBB-o,ITCPTC,-5.52,-3.37,-5.604000000000001,-3.858000000000001,1.0,CF,_,100.0,MoOx,ZnO,2.14,2.22,0.99,7.35,30.5,CCCCC(CC)CSc1ccccc1-c1c2cc(-c3ccc(-c4sc(-c5ccc(C)s5)c5c4C(=O)c4c(CC(CC)CCCC)sc(CC(CC)CCCC)c4C5=O)s3)sc2c(-c2ccccc2SCC(CC)CCCC)c2cc(C)sc12.CCCCCCc1ccc(C2(c3ccc(CCCCCC)cc3)c3cc4c(cc3-c3sc5cc(/C=C6\C(=O)c7cscc7C6=C(C#N)C#N)sc5c32)C(c2ccc(CCCCCC)cc2)(c2ccc(CCCCCC)cc2)c2c-4sc3cc(/C=C4\C(=O)c5cscc5C4=C(C#N)C#N)sc23)cc1,[C][C][C][C][C][Branch1][Ring1][C][C][C][S][C][=C][C][=C][C][=C][Ring1][=Branch1][C][=C][C][=C][Branch2][=Branch1][Branch2][C][=C][C][=C][Branch2][Branch1][=N][C][S][C][Branch1][O][C][=C][C][=C][Branch1][C][C][S][Ring1][=Branch1][=C][C][=Ring1][O][C][=Branch1][C][=O][C][=C][Branch1][O][C][C][Branch1][Ring1][C][C][C][C][C][C][S][C][Branch1][O][C][C][Branch1][Ring1][C][C][C][C][C][C][=C][Ring2][Ring1][Branch1][C][Ring2][Ring1][#Branch2][=O][S][Ring2][Ring2][=Branch2][S][C][Ring2][Ring2][=C][=C][Branch2][Ring1][Ring2][C][=C][C][=C][C][=C][Ring1][=Branch1][S][C][C][Branch1][Ring1][C][C][C][C][C][C][C][C][=C][Branch1][C][C][S][C][Ring2][=Branch1][Branch1][=Ring1][=Branch1].[C][C][C][C][C][C][C][=C][C][=C][Branch2][O][#Branch2][C][Branch1][P][C][=C][C][=C][Branch1][#Branch1][C][C][C][C][C][C][C][=C][Ring1][N][C][=C][C][=C][Branch2][Ring2][S][C][=C][Ring1][=Branch1][C][S][C][C][=C][Branch2][Ring1][Branch2][/C][=C][\C][=Branch1][C][=O][C][=C][S][C][=C][Ring1][Branch1][C][Ring1][=Branch2][=C][Branch1][Ring1][C][#N][C][#N][S][C][=Ring2][Ring1][Ring2][C][=Ring2][Ring1][#Branch1][Ring2][Ring2][#Branch2][C][Branch1][P][C][=C][C][=C][Branch1][#Branch1][C][C][C][C][C][C][C][=C][Ring1][N][Branch1][P][C][=C][C][=C][Branch1][#Branch1][C][C][C][C][C][C][C][=C][Ring1][N][C][=C][Ring2][Branch1][=Branch1][S][C][C][=C][Branch2][Ring1][Branch2][/C][=C][\C][=Branch1][C][=O][C][=C][S][C][=C][Ring1][Branch1][C][Ring1][=Branch2][=C][Branch1][Ring1][C][#N][C][#N][S][C][Ring2][Ring1][#Branch1][=Ring2][Ring1][Ring2][C][=C][Ring2][#Branch1][S],{CCCCC(CC)CSc1ccccc1-c1c2cc(-c3ccc(-c4sc(-c5ccc([$])s5)c5c4C(=O)c4c(CC(CC)CCCC)sc(CC(CC)CCCC)c4C5=O)s3)sc2c(-c2ccccc2SCC(CC)CCCC)c2cc([$])sc12}.CCCCCCc1ccc(C2(c3ccc(CCCCCC)cc3)c3cc4c(cc3-c3sc5cc(/C=C6\C(=O)c7cscc7C6=C(C#N)C#N)sc5c32)C(c2ccc(CCCCCC)cc2)(c2ccc(CCCCCC)cc2)c2c-4sc3cc(/C=C4\C(=O)c5cscc5C4=C(C#N)C#N)sc23)cc1