Donor,Acceptor,HOMO_D_eV,LUMO_D_eV,HOMO_A_eV,LUMO_A_eV,D_A_ratio_m_m,solvent,solvent_additive,annealing_temperature,hole_contact_layer,electron_contact_layer,PCE_percent,calc_PCE_percent,Voc_V,Jsc_mA_cm_pow_neg2,FF_percent,DA_SMILES,DA_SELFIES,DA_BigSMILES
PBDT-TT,ITIC,-5.23,-3.34,-5.574146341463415,-3.915,0.667,DCB,_,25.0,PEDOT:PSS,C60-bissalt,8.72,8.72,0.849,15.8,65.0,CCCCC(CC)COC(=O)c1c(-c2ccc(C)s2)sc2c(C(=O)OCC(CC)CCCC)c(-c3ccc(-c4cc5c(-c6ccc(CC(CC)CCCC)s6)c6sc(C)cc6c(-c6ccc(CC(CC)CCCC)s6)c5s4)s3)sc12.CCCCCCc1ccc(C2(c3ccc(CCCCCC)cc3)c3cc4c(cc3-c3sc5cc(/C=C6\C(=O)c7ccccc7C6=C(C#N)C#N)sc5c32)C(c2ccc(CCCCCC)cc2)(c2ccc(CCCCCC)cc2)c2c-4sc3cc(/C=C4\C(=O)c5ccccc5C4=C(C#N)C#N)sc23)cc1,[C][C][C][C][C][Branch1][Ring1][C][C][C][O][C][=Branch1][C][=O][C][=C][Branch1][O][C][=C][C][=C][Branch1][C][C][S][Ring1][=Branch1][S][C][C][Branch1][S][C][=Branch1][C][=O][O][C][C][Branch1][Ring1][C][C][C][C][C][C][=C][Branch2][=Branch1][#C][C][=C][C][=C][Branch2][=Branch1][Ring2][C][=C][C][=C][Branch2][Ring1][Ring2][C][=C][C][=C][Branch1][O][C][C][Branch1][Ring1][C][C][C][C][C][C][S][Ring1][=N][C][S][C][Branch1][C][C][=C][C][=Ring1][=Branch1][C][Branch2][Ring1][Ring2][C][=C][C][=C][Branch1][O][C][C][Branch1][Ring1][C][C][C][C][C][C][S][Ring1][=N][=C][Ring2][Ring2][Ring2][S][Ring2][Ring2][#Branch1][S][Ring2][Ring2][N][S][C][Ring2][=Branch1][Branch1][=Ring2][Branch1][N].[C][C][C][C][C][C][C][=C][C][=C][Branch2][O][N][C][Branch1][P][C][=C][C][=C][Branch1][#Branch1][C][C][C][C][C][C][C][=C][Ring1][N][C][=C][C][=C][Branch2][Ring2][P][C][=C][Ring1][=Branch1][C][S][C][C][=C][Branch2][Ring1][=Branch2][/C][=C][\C][=Branch1][C][=O][C][=C][C][=C][C][=C][Ring1][=Branch1][C][Ring1][#Branch2][=C][Branch1][Ring1][C][#N][C][#N][S][C][=Ring2][Ring1][Branch1][C][=Ring2][Ring1][Branch2][Ring2][Ring2][O][C][Branch1][P][C][=C][C][=C][Branch1][#Branch1][C][C][C][C][C][C][C][=C][Ring1][N][Branch1][P][C][=C][C][=C][Branch1][#Branch1][C][C][C][C][C][C][C][=C][Ring1][N][C][=C][Ring2][Branch1][#Branch1][S][C][C][=C][Branch2][Ring1][=Branch2][/C][=C][\C][=Branch1][C][=O][C][=C][C][=C][C][=C][Ring1][=Branch1][C][Ring1][#Branch2][=C][Branch1][Ring1][C][#N][C][#N][S][C][Ring2][Ring1][Branch2][=Ring2][Ring1][Branch1][C][=C][Ring2][Branch2][C],{CCCCC(CC)COC(=O)c1c(-c2ccc([$])s2)sc2c(C(=O)OCC(CC)CCCC)c(-c3ccc(-c4cc5c(-c6ccc(CC(CC)CCCC)s6)c6sc([$])cc6c(-c6ccc(CC(CC)CCCC)s6)c5s4)s3)sc12}.CCCCCCc1ccc(C2(c3ccc(CCCCCC)cc3)c3cc4c(cc3-c3sc5cc(/C=C6\C(=O)c7ccccc7C6=C(C#N)C#N)sc5c32)C(c2ccc(CCCCCC)cc2)(c2ccc(CCCCCC)cc2)c2c-4sc3cc(/C=C4\C(=O)c5ccccc5C4=C(C#N)C#N)sc23)cc1
PBDT-TT,IT-M,-5.23,-3.34,-5.513571428571429,-3.808,0.667,DCB,_,25.0,PEDOT:PSS,C60-bissalt,9.99,9.99,0.904,16.5,67.0,CCCCC(CC)COC(=O)c1c(-c2ccc(C)s2)sc2c(C(=O)OCC(CC)CCCC)c(-c3ccc(-c4cc5c(-c6ccc(CC(CC)CCCC)s6)c6sc(C)cc6c(-c6ccc(CC(CC)CCCC)s6)c5s4)s3)sc12.CCCCCCc1ccc(C2(c3ccc(CCCCCC)cc3)c3cc4c(cc3-c3sc5cc(/C=C6\C(=O)c7ccc(C)cc7C6=C(C#N)C#N)sc5c32)C(c2ccc(CCCCCC)cc2)(c2ccc(CCCCCC)cc2)c2c-4sc3cc(/C=C4\C(=O)c5ccc(C)cc5C4=C(C#N)C#N)sc23)cc1,[C][C][C][C][C][Branch1][Ring1][C][C][C][O][C][=Branch1][C][=O][C][=C][Branch1][O][C][=C][C][=C][Branch1][C][C][S][Ring1][=Branch1][S][C][C][Branch1][S][C][=Branch1][C][=O][O][C][C][Branch1][Ring1][C][C][C][C][C][C][=C][Branch2][=Branch1][#C][C][=C][C][=C][Branch2][=Branch1][Ring2][C][=C][C][=C][Branch2][Ring1][Ring2][C][=C][C][=C][Branch1][O][C][C][Branch1][Ring1][C][C][C][C][C][C][S][Ring1][=N][C][S][C][Branch1][C][C][=C][C][=Ring1][=Branch1][C][Branch2][Ring1][Ring2][C][=C][C][=C][Branch1][O][C][C][Branch1][Ring1][C][C][C][C][C][C][S][Ring1][=N][=C][Ring2][Ring2][Ring2][S][Ring2][Ring2][#Branch1][S][Ring2][Ring2][N][S][C][Ring2][=Branch1][Branch1][=Ring2][Branch1][N].[C][C][C][C][C][C][C][=C][C][=C][Branch2][N][C][C][Branch1][P][C][=C][C][=C][Branch1][#Branch1][C][C][C][C][C][C][C][=C][Ring1][N][C][=C][C][=C][Branch2][Branch1][Ring2][C][=C][Ring1][=Branch1][C][S][C][C][=C][Branch2][Ring1][N][/C][=C][\C][=Branch1][C][=O][C][=C][C][=C][Branch1][C][C][C][=C][Ring1][#Branch1][C][Ring1][O][=C][Branch1][Ring1][C][#N][C][#N][S][C][=Ring2][Ring1][=Branch1][C][=Ring2][Ring1][=Branch2][Ring2][Ring2][N][C][Branch1][P][C][=C][C][=C][Branch1][#Branch1][C][C][C][C][C][C][C][=C][Ring1][N][Branch1][P][C][=C][C][=C][Branch1][#Branch1][C][C][C][C][C][C][C][=C][Ring1][N][C][=C][Ring2][Branch1][Branch2][S][C][C][=C][Branch2][Ring1][N][/C][=C][\C][=Branch1][C][=O][C][=C][C][=C][Branch1][C][C][C][=C][Ring1][#Branch1][C][Ring1][O][=C][Branch1][Ring1][C][#N][C][#N][S][C][Ring2][Ring1][=Branch2][=Ring2][Ring1][=Branch1][C][=C][Ring2][Branch2][Ring2],{CCCCC(CC)COC(=O)c1c(-c2ccc([$])s2)sc2c(C(=O)OCC(CC)CCCC)c(-c3ccc(-c4cc5c(-c6ccc(CC(CC)CCCC)s6)c6sc([$])cc6c(-c6ccc(CC(CC)CCCC)s6)c5s4)s3)sc12}.CCCCCCc1ccc(C2(c3ccc(CCCCCC)cc3)c3cc4c(cc3-c3sc5cc(/C=C6\C(=O)c7ccc(C)cc7C6=C(C#N)C#N)sc5c32)C(c2ccc(CCCCCC)cc2)(c2ccc(CCCCCC)cc2)c2c-4sc3cc(/C=C4\C(=O)c5ccc(C)cc5C4=C(C#N)C#N)sc23)cc1
J71,A201,-5.353333333333333,-3.4318181818181825,-5.69,-3.93,1.0,CF,_,25.0,PEDOT:PSS,Ca,9.36,7.77,0.88,13.15,67.15,CCCCCCCCC(CCCCCC)Cn1nc2c(-c3ccc(C)s3)c(F)c(F)c(-c3ccc(-c4cc5c(-c6ccc([Si](CCC)(CCC)CCC)s6)c6sc(C)cc6c(-c6ccc([Si](CCC)(CCC)CCC)s6)c5s4)s3)c2n1.CCCCCCc1ccc(C2(c3ccc(CCCCCC)cc3)c3cc4c(cc3-c3sc(/C=C5\C(=O)c6ccccc6C5=C(C#N)C#N)cc32)C(c2ccc(CCCCCC)cc2)(c2ccc(CCCCCC)cc2)c2c-4sc3cc(/C=C4\C(=O)c5ccccc5C4=C(C#N)C#N)sc23)cc1,[C][C][C][C][C][C][C][C][C][Branch1][#Branch1][C][C][C][C][C][C][C][N][N][=C][C][Branch1][O][C][=C][C][=C][Branch1][C][C][S][Ring1][=Branch1][=C][Branch1][C][F][C][Branch1][C][F][=C][Branch2][#Branch1][#Branch1][C][=C][C][=C][Branch2][=Branch1][N][C][=C][C][=C][Branch2][Ring1][Branch2][C][=C][C][=C][Branch1][#C][Si][Branch1][Ring2][C][C][C][Branch1][Ring2][C][C][C][C][C][C][S][Ring1][#C][C][S][C][Branch1][C][C][=C][C][=Ring1][=Branch1][C][Branch2][Ring1][Branch2][C][=C][C][=C][Branch1][#C][Si][Branch1][Ring2][C][C][C][Branch1][Ring2][C][C][C][C][C][C][S][Ring1][#C][=C][Ring2][Ring2][Branch2][S][Ring2][Ring2][O][S][Ring2][Ring2][S][C][Ring2][Branch1][=C][=N][Ring2][Branch1][P].[C][C][C][C][C][C][C][=C][C][=C][Branch2][O][=Branch1][C][Branch1][P][C][=C][C][=C][Branch1][#Branch1][C][C][C][C][C][C][C][=C][Ring1][N][C][=C][C][=C][Branch2][Ring2][O][C][=C][Ring1][=Branch1][C][S][C][Branch2][Ring1][=Branch2][/C][=C][\C][=Branch1][C][=O][C][=C][C][=C][C][=C][Ring1][=Branch1][C][Ring1][#Branch2][=C][Branch1][Ring1][C][#N][C][#N][=C][C][=Ring2][Ring1][Branch1][Ring2][Ring2][Branch2][C][Branch1][P][C][=C][C][=C][Branch1][#Branch1][C][C][C][C][C][C][C][=C][Ring1][N][Branch1][P][C][=C][C][=C][Branch1][#Branch1][C][C][C][C][C][C][C][=C][Ring1][N][C][=C][Ring2][Branch1][Ring2][S][C][C][=C][Branch2][Ring1][=Branch2][/C][=C][\C][=Branch1][C][=O][C][=C][C][=C][C][=C][Ring1][=Branch1][C][Ring1][#Branch2][=C][Branch1][Ring1][C][#N][C][#N][S][C][Ring2][Ring1][Branch2][=Ring2][Ring1][Branch1][C][=C][Ring2][#Branch1][#C],{CCCCCCCCC(CCCCCC)Cn1nc2c(-c3ccc([$])s3)c(F)c(F)c(-c3ccc(-c4cc5c(-c6ccc([Si](CCC)(CCC)CCC)s6)c6sc([$])cc6c(-c6ccc([Si](CCC)(CCC)CCC)s6)c5s4)s3)c2n1}.CCCCCCc1ccc(C2(c3ccc(CCCCCC)cc3)c3cc4c(cc3-c3sc(/C=C5\C(=O)c6ccccc6C5=C(C#N)C#N)cc32)C(c2ccc(CCCCCC)cc2)(c2ccc(CCCCCC)cc2)c2c-4sc3cc(/C=C4\C(=O)c5ccccc5C4=C(C#N)C#N)sc23)cc1
J52,BTA13,-5.218571428571429,-3.341428571428572,-5.34,-3.62,1.0,CF,CN,170.0,PEDOT:PSS,Ca,7.82,7.82,1.05,12.7,58.66,CCCCCCCCC(CCCCCC)Cn1nc2c(-c3ccc(C)s3)c(F)c(F)c(-c3ccc(-c4cc5c(-c6ccc(CC(CC)CCCC)s6)c6sc(C)cc6c(-c6ccc(CC(CC)CCCC)s6)c5s4)s3)c2n1.CCCCCCCCn1nc2c(/C=c3/sc(=C(C#N)C#N)n(CC)c3=O)ccc(-c3cc4sc5c(c4s3)C(c3ccc(CCCCCC)cc3)(c3ccc(CCCCCC)cc3)c3cc4c(cc3-5)C(c3ccc(CCCCCC)cc3)(c3ccc(CCCCCC)cc3)c3c-4sc4cc(-c5ccc(/C=c6/sc(=C(C#N)C#N)n(CC)c6=O)c6nn(CCCCCCCC)nc56)sc34)c2n1,[C][C][C][C][C][C][C][C][C][Branch1][#Branch1][C][C][C][C][C][C][C][N][N][=C][C][Branch1][O][C][=C][C][=C][Branch1][C][C][S][Ring1][=Branch1][=C][Branch1][C][F][C][Branch1][C][F][=C][Branch2][=Branch1][#C][C][=C][C][=C][Branch2][=Branch1][Ring2][C][=C][C][=C][Branch2][Ring1][Ring2][C][=C][C][=C][Branch1][O][C][C][Branch1][Ring1][C][C][C][C][C][C][S][Ring1][=N][C][S][C][Branch1][C][C][=C][C][=Ring1][=Branch1][C][Branch2][Ring1][Ring2][C][=C][C][=C][Branch1][O][C][C][Branch1][Ring1][C][C][C][C][C][C][S][Ring1][=N][=C][Ring2][Ring2][Ring2][S][Ring2][Ring2][#Branch1][S][Ring2][Ring2][N][C][Ring2][Branch1][#Branch2][=N][Ring2][Branch1][=N].[C][C][C][C][C][C][C][C][N][N][=C][C][Branch2][Ring1][#Branch1][/C][=C][/S][C][=Branch1][Branch2][=C][Branch1][Ring1][C][#N][C][#N][N][Branch1][Ring1][C][C][C][Ring1][N][=O][=C][C][=C][Branch2][N][O][C][=C][C][S][C][=C][Branch1][#Branch1][C][=Ring1][Branch1][S][Ring1][Branch2][C][Branch1][P][C][=C][C][=C][Branch1][#Branch1][C][C][C][C][C][C][C][=C][Ring1][N][Branch1][P][C][=C][C][=C][Branch1][#Branch1][C][C][C][C][C][C][C][=C][Ring1][N][C][=C][C][=C][Branch1][Branch2][C][=C][Ring1][=Branch1][Ring2][Ring2][Ring1][C][Branch1][P][C][=C][C][=C][Branch1][#Branch1][C][C][C][C][C][C][C][=C][Ring1][N][Branch1][P][C][=C][C][=C][Branch1][#Branch1][C][C][C][C][C][C][C][=C][Ring1][N][C][=C][Ring2][Ring1][#C][S][C][C][=C][Branch2][Branch1][C][C][=C][C][=C][Branch2][Ring1][#Branch1][/C][=C][/S][C][=Branch1][Branch2][=C][Branch1][Ring1][C][#N][C][#N][N][Branch1][Ring1][C][C][C][Ring1][N][=O][C][=N][N][Branch1][=Branch2][C][C][C][C][C][C][C][C][N][=C][Ring2][Ring1][#C][Ring1][=N][S][C][Ring2][Ring2][#Branch1][=Ring2][Ring2][Ring2][C][Ring2][=Branch2][O][=N][Ring2][=Branch2][=C],{CCCCCCCCC(CCCCCC)Cn1nc2c(-c3ccc([$])s3)c(F)c(F)c(-c3ccc(-c4cc5c(-c6ccc(CC(CC)CCCC)s6)c6sc([$])cc6c(-c6ccc(CC(CC)CCCC)s6)c5s4)s3)c2n1}.CCCCCCCCn1nc2c(/C=c3/sc(=C(C#N)C#N)n(CC)c3=O)ccc(-c3cc4sc5c(c4s3)C(c3ccc(CCCCCC)cc3)(c3ccc(CCCCCC)cc3)c3cc4c(cc3-5)C(c3ccc(CCCCCC)cc3)(c3ccc(CCCCCC)cc3)c3c-4sc4cc(-c5ccc(/C=c6/sc(=C(C#N)C#N)n(CC)c6=O)c6nn(CCCCCCCC)nc56)sc34)c2n1
J52-F,BTA13,-5.29,-3.38,-5.34,-3.62,1.0,CF,CN,150.0,PEDOT:PSS,Ca,8.36,8.36,1.18,11.55,61.34,CCCCCCCCC(CCCCCC)Cn1nc2c(-c3ccc(C)s3)c(F)c(F)c(-c3ccc(-c4cc5c(-c6cc(F)c(CC(CC)CCCC)s6)c6sc(C)cc6c(-c6cc(F)c(CC(CC)CCCC)s6)c5s4)s3)c2n1.CCCCCCCCn1nc2c(/C=c3/sc(=C(C#N)C#N)n(CC)c3=O)ccc(-c3cc4sc5c(c4s3)C(c3ccc(CCCCCC)cc3)(c3ccc(CCCCCC)cc3)c3cc4c(cc3-5)C(c3ccc(CCCCCC)cc3)(c3ccc(CCCCCC)cc3)c3c-4sc4cc(-c5ccc(/C=c6/sc(=C(C#N)C#N)n(CC)c6=O)c6nn(CCCCCCCC)nc56)sc34)c2n1,[C][C][C][C][C][C][C][C][C][Branch1][#Branch1][C][C][C][C][C][C][C][N][N][=C][C][Branch1][O][C][=C][C][=C][Branch1][C][C][S][Ring1][=Branch1][=C][Branch1][C][F][C][Branch1][C][F][=C][Branch2][#Branch1][Branch1][C][=C][C][=C][Branch2][=Branch1][#Branch2][C][=C][C][=C][Branch2][Ring1][#Branch1][C][=C][C][Branch1][C][F][=C][Branch1][O][C][C][Branch1][Ring1][C][C][C][C][C][C][S][Ring1][=C][C][S][C][Branch1][C][C][=C][C][=Ring1][=Branch1][C][Branch2][Ring1][#Branch1][C][=C][C][Branch1][C][F][=C][Branch1][O][C][C][Branch1][Ring1][C][C][C][C][C][C][S][Ring1][=C][=C][Ring2][Ring2][=Branch1][S][Ring2][Ring2][=Branch2][S][Ring2][Ring2][=C][C][Ring2][Branch1][N][=N][Ring2][Branch1][#C].[C][C][C][C][C][C][C][C][N][N][=C][C][Branch2][Ring1][#Branch1][/C][=C][/S][C][=Branch1][Branch2][=C][Branch1][Ring1][C][#N][C][#N][N][Branch1][Ring1][C][C][C][Ring1][N][=O][=C][C][=C][Branch2][N][O][C][=C][C][S][C][=C][Branch1][#Branch1][C][=Ring1][Branch1][S][Ring1][Branch2][C][Branch1][P][C][=C][C][=C][Branch1][#Branch1][C][C][C][C][C][C][C][=C][Ring1][N][Branch1][P][C][=C][C][=C][Branch1][#Branch1][C][C][C][C][C][C][C][=C][Ring1][N][C][=C][C][=C][Branch1][Branch2][C][=C][Ring1][=Branch1][Ring2][Ring2][Ring1][C][Branch1][P][C][=C][C][=C][Branch1][#Branch1][C][C][C][C][C][C][C][=C][Ring1][N][Branch1][P][C][=C][C][=C][Branch1][#Branch1][C][C][C][C][C][C][C][=C][Ring1][N][C][=C][Ring2][Ring1][#C][S][C][C][=C][Branch2][Branch1][C][C][=C][C][=C][Branch2][Ring1][#Branch1][/C][=C][/S][C][=Branch1][Branch2][=C][Branch1][Ring1][C][#N][C][#N][N][Branch1][Ring1][C][C][C][Ring1][N][=O][C][=N][N][Branch1][=Branch2][C][C][C][C][C][C][C][C][N][=C][Ring2][Ring1][#C][Ring1][=N][S][C][Ring2][Ring2][#Branch1][=Ring2][Ring2][Ring2][C][Ring2][=Branch2][O][=N][Ring2][=Branch2][=C],{CCCCCCCCC(CCCCCC)Cn1nc2c(-c3ccc([$])s3)c(F)c(F)c(-c3ccc(-c4cc5c(-c6cc(F)c(CC(CC)CCCC)s6)c6sc([$])cc6c(-c6cc(F)c(CC(CC)CCCC)s6)c5s4)s3)c2n1}.CCCCCCCCn1nc2c(/C=c3/sc(=C(C#N)C#N)n(CC)c3=O)ccc(-c3cc4sc5c(c4s3)C(c3ccc(CCCCCC)cc3)(c3ccc(CCCCCC)cc3)c3cc4c(cc3-5)C(c3ccc(CCCCCC)cc3)(c3ccc(CCCCCC)cc3)c3c-4sc4cc(-c5ccc(/C=c6/sc(=C(C#N)C#N)n(CC)c6=O)c6nn(CCCCCCCC)nc56)sc34)c2n1
J61,BT-IC,-5.303333333333334,-3.151666666666667,-5.3775,-3.8575,1.0,CF,_,120.0,PEDOT:PSS,PDINO,9.56,9.54,0.87,16.35,67.1,CCCCCCCCCCCCSSc1ccc(-c2c3cc(-c4ccc(-c5c(F)c(F)c(-c6ccc(C)s6)c6nn(CC(CCCCCC)CCCCCCCC)nc56)s4)sc3c(-c3ccc(SSCCCCCCCCCCCC)s3)c3cc(C)sc23)s1.CCCCCCc1ccc(C2(c3ccc(CCCCCC)cc3)c3cc(/C=C4\C(=O)c5ccccc5C4=C(C#N)C#N)sc3-c3sc4c(OCC(CC)CCCC)c5c6c(sc5c(OCC(CC)CCCC)c4c32)-c2sc(/C=C3\C(=O)c4ccccc4C3=C(C#N)C#N)cc2C6(c2ccc(CCCCCC)cc2)c2ccc(CCCCCC)cc2)cc1,[C][C][C][C][C][C][C][C][C][C][C][C][S][S][C][=C][C][=C][Branch2][=Branch2][#Branch1][C][=C][C][=C][Branch2][=Branch1][C][C][=C][C][=C][Branch2][Branch1][#Branch1][C][=C][Branch1][C][F][C][Branch1][C][F][=C][Branch1][O][C][=C][C][=C][Branch1][C][C][S][Ring1][=Branch1][C][=N][N][Branch2][Ring1][Ring1][C][C][Branch1][#Branch1][C][C][C][C][C][C][C][C][C][C][C][C][C][C][N][=C][Ring2][Ring1][P][Ring2][Ring1][Branch1][S][Ring2][Ring2][=Branch1][S][C][Ring2][Ring2][O][=C][Branch2][Ring1][=Branch2][C][=C][C][=C][Branch1][#C][S][S][C][C][C][C][C][C][C][C][C][C][C][C][S][Ring2][Ring1][Ring1][C][C][=C][Branch1][C][C][S][C][Ring2][=Branch1][=Branch1][=Ring1][=Branch1][S][Ring2][=Branch1][O].[C][C][C][C][C][C][C][=C][C][=C][Branch2][=N][Ring2][C][Branch1][P][C][=C][C][=C][Branch1][#Branch1][C][C][C][C][C][C][C][=C][Ring1][N][C][C][=C][Branch2][Ring1][=Branch2][/C][=C][\C][=Branch1][C][=O][C][=C][C][=C][C][=C][Ring1][=Branch1][C][Ring1][#Branch2][=C][Branch1][Ring1][C][#N][C][#N][S][C][=Ring2][Ring1][Branch1][C][S][C][=C][Branch1][N][O][C][C][Branch1][Ring1][C][C][C][C][C][C][C][C][=C][Branch2][Ring1][=C][S][C][=Ring1][Branch1][C][Branch1][N][O][C][C][Branch1][Ring1][C][C][C][C][C][C][=C][Ring2][Ring1][O][C][=Ring2][Ring1][=C][Ring2][Branch1][S][C][S][C][Branch2][Ring1][=Branch2][/C][=C][\C][=Branch1][C][=O][C][=C][C][=C][C][=C][Ring1][=Branch1][C][Ring1][#Branch2][=C][Branch1][Ring1][C][#N][C][#N][=C][C][=Ring2][Ring1][Branch1][C][Ring2][Ring2][=Branch1][Branch1][P][C][=C][C][=C][Branch1][#Branch1][C][C][C][C][C][C][C][=C][Ring1][N][C][=C][C][=C][Branch1][#Branch1][C][C][C][C][C][C][C][=C][Ring1][N][C][=C][Ring2][=Branch2][Ring2],{CCCCCCCCCCCCSSc1ccc(-c2c3cc(-c4ccc(-c5c(F)c(F)c(-c6ccc([$])s6)c6nn(CC(CCCCCC)CCCCCCCC)nc56)s4)sc3c(-c3ccc(SSCCCCCCCCCCCC)s3)c3cc([$])sc23)s1}.CCCCCCc1ccc(C2(c3ccc(CCCCCC)cc3)c3cc(/C=C4\C(=O)c5ccccc5C4=C(C#N)C#N)sc3-c3sc4c(OCC(CC)CCCC)c5c6c(sc5c(OCC(CC)CCCC)c4c32)-c2sc(/C=C3\C(=O)c4ccccc4C3=C(C#N)C#N)cc2C6(c2ccc(CCCCCC)cc2)c2ccc(CCCCCC)cc2)cc1
J71,BT-IC,-5.353333333333333,-3.4318181818181825,-5.3775,-3.8575,0.667,CF,_,120.0,PEDOT:PSS,PDINO,10.46,10.5,0.9,17.75,65.7,CCCCCCCCC(CCCCCC)Cn1nc2c(-c3ccc(C)s3)c(F)c(F)c(-c3ccc(-c4cc5c(-c6ccc([Si](CCC)(CCC)CCC)s6)c6sc(C)cc6c(-c6ccc([Si](CCC)(CCC)CCC)s6)c5s4)s3)c2n1.CCCCCCc1ccc(C2(c3ccc(CCCCCC)cc3)c3cc(/C=C4\C(=O)c5ccccc5C4=C(C#N)C#N)sc3-c3sc4c(OCC(CC)CCCC)c5c6c(sc5c(OCC(CC)CCCC)c4c32)-c2sc(/C=C3\C(=O)c4ccccc4C3=C(C#N)C#N)cc2C6(c2ccc(CCCCCC)cc2)c2ccc(CCCCCC)cc2)cc1,[C][C][C][C][C][C][C][C][C][Branch1][#Branch1][C][C][C][C][C][C][C][N][N][=C][C][Branch1][O][C][=C][C][=C][Branch1][C][C][S][Ring1][=Branch1][=C][Branch1][C][F][C][Branch1][C][F][=C][Branch2][#Branch1][#Branch1][C][=C][C][=C][Branch2][=Branch1][N][C][=C][C][=C][Branch2][Ring1][Branch2][C][=C][C][=C][Branch1][#C][Si][Branch1][Ring2][C][C][C][Branch1][Ring2][C][C][C][C][C][C][S][Ring1][#C][C][S][C][Branch1][C][C][=C][C][=Ring1][=Branch1][C][Branch2][Ring1][Branch2][C][=C][C][=C][Branch1][#C][Si][Branch1][Ring2][C][C][C][Branch1][Ring2][C][C][C][C][C][C][S][Ring1][#C][=C][Ring2][Ring2][Branch2][S][Ring2][Ring2][O][S][Ring2][Ring2][S][C][Ring2][Branch1][=C][=N][Ring2][Branch1][P].[C][C][C][C][C][C][C][=C][C][=C][Branch2][=N][Ring2][C][Branch1][P][C][=C][C][=C][Branch1][#Branch1][C][C][C][C][C][C][C][=C][Ring1][N][C][C][=C][Branch2][Ring1][=Branch2][/C][=C][\C][=Branch1][C][=O][C][=C][C][=C][C][=C][Ring1][=Branch1][C][Ring1][#Branch2][=C][Branch1][Ring1][C][#N][C][#N][S][C][=Ring2][Ring1][Branch1][C][S][C][=C][Branch1][N][O][C][C][Branch1][Ring1][C][C][C][C][C][C][C][C][=C][Branch2][Ring1][=C][S][C][=Ring1][Branch1][C][Branch1][N][O][C][C][Branch1][Ring1][C][C][C][C][C][C][=C][Ring2][Ring1][O][C][=Ring2][Ring1][=C][Ring2][Branch1][S][C][S][C][Branch2][Ring1][=Branch2][/C][=C][\C][=Branch1][C][=O][C][=C][C][=C][C][=C][Ring1][=Branch1][C][Ring1][#Branch2][=C][Branch1][Ring1][C][#N][C][#N][=C][C][=Ring2][Ring1][Branch1][C][Ring2][Ring2][=Branch1][Branch1][P][C][=C][C][=C][Branch1][#Branch1][C][C][C][C][C][C][C][=C][Ring1][N][C][=C][C][=C][Branch1][#Branch1][C][C][C][C][C][C][C][=C][Ring1][N][C][=C][Ring2][=Branch2][Ring2],{CCCCCCCCC(CCCCCC)Cn1nc2c(-c3ccc([$])s3)c(F)c(F)c(-c3ccc(-c4cc5c(-c6ccc([Si](CCC)(CCC)CCC)s6)c6sc([$])cc6c(-c6ccc([Si](CCC)(CCC)CCC)s6)c5s4)s3)c2n1}.CCCCCCc1ccc(C2(c3ccc(CCCCCC)cc3)c3cc(/C=C4\C(=O)c5ccccc5C4=C(C#N)C#N)sc3-c3sc4c(OCC(CC)CCCC)c5c6c(sc5c(OCC(CC)CCCC)c4c32)-c2sc(/C=C3\C(=O)c4ccccc4C3=C(C#N)C#N)cc2C6(c2ccc(CCCCCC)cc2)c2ccc(CCCCCC)cc2)cc1
PTB7-Th,IDIC,-5.204782608695651,-3.5391891891891896,-5.706,-4.002666666666667,1.0,CF,_,25.0,MoOx,ZnO,5.24,4.93,0.806,10.9,56.1,CCCCC(CC)COC(=O)c1sc2c(-c3cc4c(-c5ccc(CC(CC)CCCC)s5)c5sc(C)cc5c(-c5ccc(CC(CC)CCCC)s5)c4s3)sc(C)c2c1F.CCCCCCC1(CCCCCC)c2cc3c(cc2-c2sc(/C=C4\C(=O)c5ccccc5C4=C(C#N)C#N)cc21)C(CCCCCC)(CCCCCC)c1cc(/C=C2\C(=O)c4ccccc4C2=C(C#N)C#N)sc1-3,[C][C][C][C][C][Branch1][Ring1][C][C][C][O][C][=Branch1][C][=O][C][S][C][=C][Branch2][=Branch1][Ring2][C][=C][C][=C][Branch2][Ring1][Ring2][C][=C][C][=C][Branch1][O][C][C][Branch1][Ring1][C][C][C][C][C][C][S][Ring1][=N][C][S][C][Branch1][C][C][=C][C][=Ring1][=Branch1][C][Branch2][Ring1][Ring2][C][=C][C][=C][Branch1][O][C][C][Branch1][Ring1][C][C][C][C][C][C][S][Ring1][=N][=C][Ring2][Ring2][Ring2][S][Ring2][Ring2][#Branch1][S][C][Branch1][C][C][=C][Ring2][Ring2][=N][C][=Ring2][Ring2][S][F].[C][C][C][C][C][C][C][Branch1][#Branch1][C][C][C][C][C][C][C][=C][C][=C][Branch2][Ring2][O][C][=C][Ring1][=Branch1][C][S][C][Branch2][Ring1][=Branch2][/C][=C][\C][=Branch1][C][=O][C][=C][C][=C][C][=C][Ring1][=Branch1][C][Ring1][#Branch2][=C][Branch1][Ring1][C][#N][C][#N][=C][C][=Ring2][Ring1][Branch1][Ring2][Ring2][C][C][Branch1][#Branch1][C][C][C][C][C][C][Branch1][#Branch1][C][C][C][C][C][C][C][C][=C][Branch2][Ring1][=Branch2][/C][=C][\C][=Branch1][C][=O][C][=C][C][=C][C][=C][Ring1][=Branch1][C][Ring1][#Branch2][=C][Branch1][Ring1][C][#N][C][#N][S][C][=Ring2][Ring1][Branch1][Ring2][Branch1][O],{CCCCC(CC)COC(=O)c1sc2c(-c3cc4c(-c5ccc(CC(CC)CCCC)s5)c5sc([$])cc5c(-c5ccc(CC(CC)CCCC)s5)c4s3)sc([$])c2c1F}.CCCCCCC1(CCCCCC)c2cc3c(cc2-c2sc(/C=C4\C(=O)c5ccccc5C4=C(C#N)C#N)cc21)C(CCCCCC)(CCCCCC)c1cc(/C=C2\C(=O)c4ccccc4C2=C(C#N)C#N)sc1-3