Donor,Acceptor,HOMO_D_eV,LUMO_D_eV,Eg_D_eV,Ehl_D_eV,HOMO_A_eV,LUMO_A_eV,Ehl_A_eV,Eg_A_eV,D_A_ratio_m_m,solvent,solvent_additive,annealing_temperature,hole_contact_layer,electron_contact_layer,PCE_percent,calc_PCE_percent,Voc_V,Jsc_mA_cm_pow_neg2,FF_percent,DA_SMILES,DA_SELFIES,DA_BigSMILES
PBDS-T,ITIC-F,-5.349999999999999,-3.67,1.82,-1.6799999999999988,-5.62,-4.018571428571429,-1.6014285714285714,1.532857142857143,1:1,CB,DIO,25.0,MoOx,ZnO,11.19,11.189592,0.9,18.64,66.7,CCCCC(CC)CC1SC(CC(CC)CCCC)C2C(=O)c3c(C4CCC(c5cc6c(-c7ccc([Si](CCC)(CCC)CCC)s7)c7sc(C)cc7c(-c7ccc([Si](CCC)(CCC)CCC)s7)c6s5)S4)sc(-c4ccc(C)s4)c3C(=O)C12.CCCCCCc1ccc(C2(c3ccc(CCCCCC)cc3)c3cc4c(cc3-c3sc5cc(/C=C6\C(=O)c7cc(F)c(F)cc7C6=C(C#N)C#N)sc5c32)C(c2ccc(CCCCCC)cc2)(c2ccc(CCCCCC)cc2)c2c-4sc3cc(/C=C4\C(=O)c5cc(F)c(F)cc5C4=C(C#N)C#N)sc23)cc1,[C][C][C][C][C][Branch1][Ring1][C][C][C][C][S][C][Branch1][O][C][C][Branch1][Ring1][C][C][C][C][C][C][C][C][=Branch1][C][=O][C][=C][Branch2][#Branch1][#Branch1][C][C][C][C][Branch2][=Branch1][N][C][=C][C][=C][Branch2][Ring1][Branch2][C][=C][C][=C][Branch1][#C][Si][Branch1][Ring2][C][C][C][Branch1][Ring2][C][C][C][C][C][C][S][Ring1][#C][C][S][C][Branch1][C][C][=C][C][=Ring1][=Branch1][C][Branch2][Ring1][Branch2][C][=C][C][=C][Branch1][#C][Si][Branch1][Ring2][C][C][C][Branch1][Ring2][C][C][C][C][C][C][S][Ring1][#C][=C][Ring2][Ring2][Branch2][S][Ring2][Ring2][O][S][Ring2][Ring2][S][S][C][Branch1][O][C][=C][C][=C][Branch1][C][C][S][Ring1][=Branch1][=C][Ring2][Branch1][O][C][=Branch1][C][=O][C][Ring2][=Branch1][N][Ring2][Branch1][P].[C][C][C][C][C][C][C][=C][C][=C][Branch2][N][Branch2][C][Branch1][P][C][=C][C][=C][Branch1][#Branch1][C][C][C][C][C][C][C][=C][Ring1][N][C][=C][C][=C][Branch2][Branch1][#Branch1][C][=C][Ring1][=Branch1][C][S][C][C][=C][Branch2][Ring1][#C][/C][=C][\C][=Branch1][C][=O][C][=C][C][Branch1][C][F][=C][Branch1][C][F][C][=C][Ring1][Branch2][C][Ring1][N][=C][Branch1][Ring1][C][#N][C][#N][S][C][=Ring2][Ring1][#Branch1][C][=Ring2][Ring1][#Branch2][Ring2][Ring2][=N][C][Branch1][P][C][=C][C][=C][Branch1][#Branch1][C][C][C][C][C][C][C][=C][Ring1][N][Branch1][P][C][=C][C][=C][Branch1][#Branch1][C][C][C][C][C][C][C][=C][Ring1][N][C][=C][Ring2][Branch1][=Branch2][S][C][C][=C][Branch2][Ring1][#C][/C][=C][\C][=Branch1][C][=O][C][=C][C][Branch1][C][F][=C][Branch1][C][F][C][=C][Ring1][Branch2][C][Ring1][N][=C][Branch1][Ring1][C][#N][C][#N][S][C][Ring2][Ring1][#Branch2][=Ring2][Ring1][#Branch1][C][=C][Ring2][Branch2][=Branch1],{CCCCC(CC)CC1SC(CC(CC)CCCC)C2C(=O)c3c(C4CCC(c5cc6c(-c7ccc([Si](CCC)(CCC)CCC)s7)c7sc([$])cc7c(-c7ccc([Si](CCC)(CCC)CCC)s7)c6s5)S4)sc(-c4ccc([$])s4)c3C(=O)C12}.CCCCCCc1ccc(C2(c3ccc(CCCCCC)cc3)c3cc4c(cc3-c3sc5cc(/C=C6\C(=O)c7cc(F)c(F)cc7C6=C(C#N)C#N)sc5c32)C(c2ccc(CCCCCC)cc2)(c2ccc(CCCCCC)cc2)c2c-4sc3cc(/C=C4\C(=O)c5cc(F)c(F)cc5C4=C(C#N)C#N)sc23)cc1
PBDS-T,ITIC-Th1,-5.349999999999999,-3.67,1.82,-1.6799999999999988,-5.720000000000001,-4.065,-1.6550000000000002,1.54,1:1,CB,DIO,25.0,MoOx,ZnO,12.04,12.0428,0.88,19.55,70.0,CCCCC(CC)CC1SC(CC(CC)CCCC)C2C(=O)c3c(C4CCC(c5cc6c(-c7ccc([Si](CCC)(CCC)CCC)s7)c7sc(C)cc7c(-c7ccc([Si](CCC)(CCC)CCC)s7)c6s5)S4)sc(-c4ccc(C)s4)c3C(=O)C12.N#CC(C#N)=C1C(=Cc2cc3sc4c(c3s2)C(c2ccc([Mo])s2)(c2ccc([Mo])s2)c2cc3c(cc2-4)C(c2ccc([Mo])s2)(c2ccc([Mo])s2)c2c-3sc3cc(C=C4C(=O)c5cc(F)ccc5C4=C(C#N)C#N)sc23)C(=O)c2cc(F)ccc21,[C][C][C][C][C][Branch1][Ring1][C][C][C][C][S][C][Branch1][O][C][C][Branch1][Ring1][C][C][C][C][C][C][C][C][=Branch1][C][=O][C][=C][Branch2][#Branch1][#Branch1][C][C][C][C][Branch2][=Branch1][N][C][=C][C][=C][Branch2][Ring1][Branch2][C][=C][C][=C][Branch1][#C][Si][Branch1][Ring2][C][C][C][Branch1][Ring2][C][C][C][C][C][C][S][Ring1][#C][C][S][C][Branch1][C][C][=C][C][=Ring1][=Branch1][C][Branch2][Ring1][Branch2][C][=C][C][=C][Branch1][#C][Si][Branch1][Ring2][C][C][C][Branch1][Ring2][C][C][C][C][C][C][S][Ring1][#C][=C][Ring2][Ring2][Branch2][S][Ring2][Ring2][O][S][Ring2][Ring2][S][S][C][Branch1][O][C][=C][C][=C][Branch1][C][C][S][Ring1][=Branch1][=C][Ring2][Branch1][O][C][=Branch1][C][=O][C][Ring2][=Branch1][N][Ring2][Branch1][P].[N][#C][C][Branch1][Ring1][C][#N][=C][C][=Branch2][=Branch2][=C][=C][C][=C][C][S][C][=C][Branch1][#Branch1][C][=Ring1][Branch1][S][Ring1][Branch2][C][Branch1][O][C][=C][C][=C][Branch1][C][Mo][S][Ring1][=Branch1][Branch1][O][C][=C][C][=C][Branch1][C][Mo][S][Ring1][=Branch1][C][=C][C][=C][Branch1][Branch2][C][=C][Ring1][=Branch1][Ring2][Ring1][#Branch1][C][Branch1][O][C][=C][C][=C][Branch1][C][Mo][S][Ring1][=Branch1][Branch1][O][C][=C][C][=C][Branch1][C][Mo][S][Ring1][=Branch1][C][=C][Ring2][Ring1][Ring1][S][C][C][=C][Branch2][Ring1][N][C][=C][C][=Branch1][C][=O][C][=C][C][Branch1][C][F][=C][C][=C][Ring1][#Branch1][C][Ring1][O][=C][Branch1][Ring1][C][#N][C][#N][S][C][Ring2][Ring1][=Branch2][=Ring2][Ring1][=Branch1][C][=Branch1][C][=O][C][=C][C][Branch1][C][F][=C][C][=C][Ring1][#Branch1][Ring2][=Branch1][=N],{CCCCC(CC)CC1SC(CC(CC)CCCC)C2C(=O)c3c(C4CCC(c5cc6c(-c7ccc([Si](CCC)(CCC)CCC)s7)c7sc([$])cc7c(-c7ccc([Si](CCC)(CCC)CCC)s7)c6s5)S4)sc(-c4ccc([$])s4)c3C(=O)C12}.N#CC(C#N)=C1C(=Cc2cc3sc4c(c3s2)C(c2ccc([Mo])s2)(c2ccc([Mo])s2)c2cc3c(cc2-4)C(c2ccc([Mo])s2)(c2ccc([Mo])s2)c2c-3sc3cc(C=C4C(=O)c5cc(F)ccc5C4=C(C#N)C#N)sc23)C(=O)c2cc(F)ccc21
J71,ITDM,-5.353333333333333,-3.4318181818181825,1.8642857142857143,-1.92151515151515,-5.58,-3.82,-1.7600000000000002,1.63,1:1,CF,_,100.0,PEDOT:PSS,ZrAcAc,12.05,12.0466899,1.015,16.74,70.9,Cc1ccc(-c2c(F)c(F)c(-c3ccc(-c4cc5c(-c6ccc([V])s6)c6sc(C)cc6c(-c6ccc([V])s6)c5s4)s3)c3nn([Sc])nc23)s1.CCCCCCc1ccc(C2(c3ccc(CCCCCC)cc3)C3=C(SC4C=C(C=C5C(=O)c6cc(C)c(C)cc6C5=C(C#N)C#N)SC34)c3cc4c(cc32)-c2sc3cc(C=C5C(=O)c6cc(C)c(C)cc6C5=C(C#N)C#N)sc3c2C4(c2ccc(CCCCCC)cc2)c2ccc(CCCCCC)cc2)cc1,[C][C][=C][C][=C][Branch2][#Branch1][Branch1][C][=C][Branch1][C][F][C][Branch1][C][F][=C][Branch2][Branch1][O][C][=C][C][=C][Branch2][Ring2][S][C][=C][C][=C][Branch1][O][C][=C][C][=C][Branch1][C][V][S][Ring1][=Branch1][C][S][C][Branch1][C][C][=C][C][=Ring1][=Branch1][C][Branch1][O][C][=C][C][=C][Branch1][C][V][S][Ring1][=Branch1][=C][Ring2][Ring1][=Branch1][S][Ring2][Ring1][=Branch2][S][Ring2][Ring1][=C][C][=N][N][Branch1][C][Sc][N][=C][Ring2][Ring2][#Branch2][Ring1][=Branch1][S][Ring2][Ring2][#C].[C][C][C][C][C][C][C][=C][C][=C][Branch2][N][Branch2][C][Branch1][P][C][=C][C][=C][Branch1][#Branch1][C][C][C][C][C][C][C][=C][Ring1][N][C][=C][Branch2][Ring2][=C][S][C][C][=C][Branch2][Ring1][#C][C][=C][C][=Branch1][C][=O][C][=C][C][Branch1][C][C][=C][Branch1][C][C][C][=C][Ring1][Branch2][C][Ring1][N][=C][Branch1][Ring1][C][#N][C][#N][S][C][Ring2][Ring1][#Branch2][Ring2][Ring1][#Branch1][C][=C][C][=C][Branch1][Branch2][C][=C][Ring1][=Branch1][Ring2][Ring2][=N][C][S][C][C][=C][Branch2][Ring1][#C][C][=C][C][=Branch1][C][=O][C][=C][C][Branch1][C][C][=C][Branch1][C][C][C][=C][Ring1][Branch2][C][Ring1][N][=C][Branch1][Ring1][C][#N][C][#N][S][C][=Ring2][Ring1][#Branch1][C][=Ring2][Ring1][#Branch2][C][Ring2][Ring1][#C][Branch1][P][C][=C][C][=C][Branch1][#Branch1][C][C][C][C][C][C][C][=C][Ring1][N][C][=C][C][=C][Branch1][#Branch1][C][C][C][C][C][C][C][=C][Ring1][N][C][=C][Ring2][Branch2][=Branch1],{[$]c1ccc(-c2c(F)c(F)c(-c3ccc(-c4cc5c(-c6ccc([V])s6)c6sc([$])cc6c(-c6ccc([V])s6)c5s4)s3)c3nn([Sc])nc23)s1}.CCCCCCc1ccc(C2(c3ccc(CCCCCC)cc3)C3=C(SC4C=C(C=C5C(=O)c6cc(C)c(C)cc6C5=C(C#N)C#N)SC34)c3cc4c(cc32)-c2sc3cc(C=C5C(=O)c6cc(C)c(C)cc6C5=C(C#N)C#N)sc3c2C4(c2ccc(CCCCCC)cc2)c2ccc(CCCCCC)cc2)cc1
J71,ITCF,-5.353333333333333,-3.4318181818181825,1.8642857142857143,-1.92151515151515,-5.59,-3.95,-1.6399999999999997,1.57,1:1,CF,_,100.0,PEDOT:PSS,ZrAcAc,13.25,13.2516384,0.91,18.48,78.8,Cc1ccc(-c2c(F)c(F)c(-c3ccc(-c4cc5c(-c6ccc([V])s6)c6sc(C)cc6c(-c6ccc([V])s6)c5s4)s3)c3nn([Sc])nc23)s1.Cc1cc2c(cc1F)C(=O)/C(=C\c1cc3sc4c(c3s1)C(c1ccc([Mo])cc1)(c1ccc([Mo])cc1)c1cc3c(cc1-4)C(c1ccc([Mo])cc1)(c1ccc([Mo])cc1)c1c-3sc3cc(/C=C4\C(=O)c5cc(F)c(C)cc5C4=C(C#N)C#N)sc13)C2=C(C#N)C#N,[C][C][=C][C][=C][Branch2][#Branch1][Branch1][C][=C][Branch1][C][F][C][Branch1][C][F][=C][Branch2][Branch1][O][C][=C][C][=C][Branch2][Ring2][S][C][=C][C][=C][Branch1][O][C][=C][C][=C][Branch1][C][V][S][Ring1][=Branch1][C][S][C][Branch1][C][C][=C][C][=Ring1][=Branch1][C][Branch1][O][C][=C][C][=C][Branch1][C][V][S][Ring1][=Branch1][=C][Ring2][Ring1][=Branch1][S][Ring2][Ring1][=Branch2][S][Ring2][Ring1][=C][C][=N][N][Branch1][C][Sc][N][=C][Ring2][Ring2][#Branch2][Ring1][=Branch1][S][Ring2][Ring2][#C].[C][C][=C][C][=C][Branch1][=Branch1][C][=C][Ring1][=Branch1][F][C][=Branch1][C][=O][/C][=Branch2][#Branch2][Branch1][=C][\C][=C][C][S][C][=C][Branch1][#Branch1][C][=Ring1][Branch1][S][Ring1][Branch2][C][Branch1][N][C][=C][C][=C][Branch1][C][Mo][C][=C][Ring1][#Branch1][Branch1][N][C][=C][C][=C][Branch1][C][Mo][C][=C][Ring1][#Branch1][C][=C][C][=C][Branch1][Branch2][C][=C][Ring1][=Branch1][Ring2][Ring1][=Branch2][C][Branch1][N][C][=C][C][=C][Branch1][C][Mo][C][=C][Ring1][#Branch1][Branch1][N][C][=C][C][=C][Branch1][C][Mo][C][=C][Ring1][#Branch1][C][=C][Ring2][Ring1][Branch1][S][C][C][=C][Branch2][Ring1][#C][/C][=C][\C][=Branch1][C][=O][C][=C][C][Branch1][C][F][=C][Branch1][C][C][C][=C][Ring1][Branch2][C][Ring1][N][=C][Branch1][Ring1][C][#N][C][#N][S][C][Ring2][Ring1][#Branch2][=Ring2][Ring1][#Branch1][C][Ring2][=Branch1][S][=C][Branch1][Ring1][C][#N][C][#N],{[$]c1ccc(-c2c(F)c(F)c(-c3ccc(-c4cc5c(-c6ccc([V])s6)c6sc([$])cc6c(-c6ccc([V])s6)c5s4)s3)c3nn([Sc])nc23)s1}.Cc1cc2c(cc1F)C(=O)/C(=C\c1cc3sc4c(c3s1)C(c1ccc([Mo])cc1)(c1ccc([Mo])cc1)c1cc3c(cc1-4)C(c1ccc([Mo])cc1)(c1ccc([Mo])cc1)c1c-3sc3cc(/C=C4\C(=O)c5cc(F)c(C)cc5C4=C(C#N)C#N)sc13)C2=C(C#N)C#N
2TC-TT-BDTFT,m-ITIC,-5.45,-3.5,2.73,-1.95,-5.527142857142858,-3.8541666666666674,-1.6729761904761902,1.5783333333333334,1:1,o-DCB,_,120.0,PEDOT:PSS,PDINO,9.65,9.5874615,1.06,15.25,59.31,CCCCCCC(CCCC)COC(=O)c1cc(C)sc1-c1cc2sc(-c3sc(-c4cc5c(-c6cc(F)c(CC(CC)CCCC)s6)c6sc(C)cc6c(-c6cc(F)c(CC(CC)CCCC)s6)c5s4)cc3C(=O)OCC(CCCC)CCCCCC)cc2s1.N#CC(C#N)=C1/C(=C/c2cc3sc4c(c3s2)C(c2cccc([Mo])c2)(c2cccc([Mo])c2)c2cc3c(cc2-4)C(c2cccc([Mo])c2)(c2cccc([Mo])c2)c2c-3sc3cc(/C=C4\C(=O)c5ccccc5C4=C(C#N)C#N)sc23)C(=O)c2ccccc21,[C][C][C][C][C][C][C][Branch1][Branch1][C][C][C][C][C][O][C][=Branch1][C][=O][C][C][=C][Branch1][C][C][S][C][=Ring1][=Branch1][C][=C][C][S][C][Branch2][Branch2][Branch2][C][S][C][Branch2][=Branch1][#Branch2][C][=C][C][=C][Branch2][Ring1][#Branch1][C][=C][C][Branch1][C][F][=C][Branch1][O][C][C][Branch1][Ring1][C][C][C][C][C][C][S][Ring1][=C][C][S][C][Branch1][C][C][=C][C][=Ring1][=Branch1][C][Branch2][Ring1][#Branch1][C][=C][C][Branch1][C][F][=C][Branch1][O][C][C][Branch1][Ring1][C][C][C][C][C][C][S][Ring1][=C][=C][Ring2][Ring2][=Branch1][S][Ring2][Ring2][=Branch2][=C][C][=Ring2][Ring2][=C][C][=Branch1][C][=O][O][C][C][Branch1][Branch1][C][C][C][C][C][C][C][C][C][C][=C][C][=Ring2][=Branch1][C][S][Ring2][=Branch1][Branch1].[N][#C][C][Branch1][Ring1][C][#N][=C][/C][=Branch2][=Branch2][#C][=C][/C][=C][C][S][C][=C][Branch1][#Branch1][C][=Ring1][Branch1][S][Ring1][Branch2][C][Branch1][N][C][=C][C][=C][C][Branch1][C][Mo][=C][Ring1][#Branch1][Branch1][N][C][=C][C][=C][C][Branch1][C][Mo][=C][Ring1][#Branch1][C][=C][C][=C][Branch1][Branch2][C][=C][Ring1][=Branch1][Ring2][Ring1][=Branch2][C][Branch1][N][C][=C][C][=C][C][Branch1][C][Mo][=C][Ring1][#Branch1][Branch1][N][C][=C][C][=C][C][Branch1][C][Mo][=C][Ring1][#Branch1][C][=C][Ring2][Ring1][Branch1][S][C][C][=C][Branch2][Ring1][=Branch2][/C][=C][\C][=Branch1][C][=O][C][=C][C][=C][C][=C][Ring1][=Branch1][C][Ring1][#Branch2][=C][Branch1][Ring1][C][#N][C][#N][S][C][Ring2][Ring1][Branch2][=Ring2][Ring1][Branch1][C][=Branch1][C][=O][C][=C][C][=C][C][=C][Ring1][=Branch1][Ring2][=Branch1][#C],{CCCCCCC(CCCC)COC(=O)c1cc([$])sc1-c1cc2sc(-c3sc(-c4cc5c(-c6cc(F)c(CC(CC)CCCC)s6)c6sc([$])cc6c(-c6cc(F)c(CC(CC)CCCC)s6)c5s4)cc3C(=O)OCC(CCCC)CCCCCC)cc2s1}.N#CC(C#N)=C1/C(=C/c2cc3sc4c(c3s2)C(c2cccc([Mo])c2)(c2cccc([Mo])c2)c2cc3c(cc2-4)C(c2cccc([Mo])c2)(c2cccc([Mo])c2)c2c-3sc3cc(/C=C4\C(=O)c5ccccc5C4=C(C#N)C#N)sc23)C(=O)c2ccccc21
2T-TTC-BDTFT,m-ITIC,-5.41,-3.53,2.58,-1.8800000000000003,-5.527142857142858,-3.8541666666666674,-1.6729761904761902,1.5783333333333334,1:1,o-DCB,_,120.0,PEDOT:PSS,PDINO,11.15,11.14977073,0.97,16.57,69.37,Cc1ccc(-c2sc3c(C(=O)O[Co])c(-c4ccc(-c5cc6c(-c7cc(F)c([Cr])s7)c7sc(C)cc7c(-c7cc(F)c([Cr])s7)c6s5)s4)sc3c2C(=O)O[Co])s1.N#CC(C#N)=C1/C(=C/c2cc3sc4c(c3s2)C(c2cccc([Mo])c2)(c2cccc([Mo])c2)c2cc3c(cc2-4)C(c2cccc([Mo])c2)(c2cccc([Mo])c2)c2c-3sc3cc(/C=C4\C(=O)c5ccccc5C4=C(C#N)C#N)sc23)C(=O)c2ccccc21,[C][C][=C][C][=C][Branch2][#Branch1][S][C][S][C][C][Branch1][#Branch1][C][=Branch1][C][=O][O][Co][=C][Branch2][Branch1][P][C][=C][C][=C][Branch2][Branch1][=Branch1][C][=C][C][=C][Branch1][=C][C][=C][C][Branch1][C][F][=C][Branch1][C][Cr][S][Ring1][#Branch1][C][S][C][Branch1][C][C][=C][C][=Ring1][=Branch1][C][Branch1][=C][C][=C][C][Branch1][C][F][=C][Branch1][C][Cr][S][Ring1][#Branch1][=C][Ring2][Ring1][Branch2][S][Ring2][Ring1][O][S][Ring2][Ring1][S][S][C][=Ring2][Ring2][=Branch2][C][=Ring2][Ring2][N][C][=Branch1][C][=O][O][Co][S][Ring2][Branch1][Branch1].[N][#C][C][Branch1][Ring1][C][#N][=C][/C][=Branch2][=Branch2][#C][=C][/C][=C][C][S][C][=C][Branch1][#Branch1][C][=Ring1][Branch1][S][Ring1][Branch2][C][Branch1][N][C][=C][C][=C][C][Branch1][C][Mo][=C][Ring1][#Branch1][Branch1][N][C][=C][C][=C][C][Branch1][C][Mo][=C][Ring1][#Branch1][C][=C][C][=C][Branch1][Branch2][C][=C][Ring1][=Branch1][Ring2][Ring1][=Branch2][C][Branch1][N][C][=C][C][=C][C][Branch1][C][Mo][=C][Ring1][#Branch1][Branch1][N][C][=C][C][=C][C][Branch1][C][Mo][=C][Ring1][#Branch1][C][=C][Ring2][Ring1][Branch1][S][C][C][=C][Branch2][Ring1][=Branch2][/C][=C][\C][=Branch1][C][=O][C][=C][C][=C][C][=C][Ring1][=Branch1][C][Ring1][#Branch2][=C][Branch1][Ring1][C][#N][C][#N][S][C][Ring2][Ring1][Branch2][=Ring2][Ring1][Branch1][C][=Branch1][C][=O][C][=C][C][=C][C][=C][Ring1][=Branch1][Ring2][=Branch1][#C],{[$]c1ccc(-c2sc3c(C(=O)O[Co])c(-c4ccc(-c5cc6c(-c7cc(F)c([Cr])s7)c7sc([$])cc7c(-c7cc(F)c([Cr])s7)c6s5)s4)sc3c2C(=O)O[Co])s1}.N#CC(C#N)=C1/C(=C/c2cc3sc4c(c3s2)C(c2cccc([Mo])c2)(c2cccc([Mo])c2)c2cc3c(cc2-4)C(c2cccc([Mo])c2)(c2cccc([Mo])c2)c2c-3sc3cc(/C=C4\C(=O)c5ccccc5C4=C(C#N)C#N)sc23)C(=O)c2ccccc21
PTB7-Th,ACS8,-5.21,-3.542368421052632,1.5883333333333332,-1.667631578947368,-5.54,-4.05,-1.4900000000000002,1.3,1:2,Toluene,_,25.0,MoOx,PFN,9.9,9.9225,0.75,22.5,58.8,Cc1cc2c(-c3ccc([Cr])s3)c3sc(-c4sc(C)c5c(F)c(C(=O)O[Cr])sc45)cc3c(-c3ccc([Cr])s3)c2s1.N#CC(C#N)=C1/C(=C/c2cc(S[Cr])c(-c3cc4c(s3)-c3cc5c(cc3C4(c3ccc([Mo])cc3)c3ccc([Mo])cc3)-c3sc(-c4sc(/C=C6\C(=O)c7cc(F)c(F)cc7C6=C(C#N)C#N)cc4S[Cr])cc3C5(c3ccc([Mo])cc3)c3ccc([Mo])cc3)s2)C(=O)c2cc(F)c(F)cc21,[C][C][=C][C][=C][Branch1][O][C][=C][C][=C][Branch1][C][Cr][S][Ring1][=Branch1][C][S][C][Branch2][Ring1][O][C][S][C][Branch1][C][C][=C][C][Branch1][C][F][=C][Branch1][#Branch1][C][=Branch1][C][=O][O][Cr][S][C][=Ring1][=C][Ring1][#Branch2][=C][C][=Ring2][Ring1][Ring1][C][Branch1][O][C][=C][C][=C][Branch1][C][Cr][S][Ring1][=Branch1][=C][Ring2][Ring2][Ring1][S][Ring2][Ring2][=Branch1].[N][#C][C][Branch1][Ring1][C][#N][=C][/C][=Branch2][O][C][=C][/C][=C][C][Branch1][Ring1][S][Cr][=C][Branch2][#Branch2][C][C][=C][C][=C][Branch1][Ring2][S][Ring1][Branch1][C][=C][C][=C][Branch2][Ring1][S][C][=C][Ring1][=Branch1][C][Ring1][#Branch2][Branch1][N][C][=C][C][=C][Branch1][C][Mo][C][=C][Ring1][#Branch1][C][=C][C][=C][Branch1][C][Mo][C][=C][Ring1][#Branch1][C][S][C][Branch2][Ring2][N][C][S][C][Branch2][Ring1][#C][/C][=C][\C][=Branch1][C][=O][C][=C][C][Branch1][C][F][=C][Branch1][C][F][C][=C][Ring1][Branch2][C][Ring1][N][=C][Branch1][Ring1][C][#N][C][#N][=C][C][=Ring2][Ring1][#Branch1][S][Cr][=C][C][=Ring2][Ring1][=C][C][Ring2][Branch1][C][Branch1][N][C][=C][C][=C][Branch1][C][Mo][C][=C][Ring1][#Branch1][C][=C][C][=C][Branch1][C][Mo][C][=C][Ring1][#Branch1][S][Ring2][=Branch1][=C][C][=Branch1][C][=O][C][=C][C][Branch1][C][F][=C][Branch1][C][F][C][=C][Ring1][Branch2][Ring2][#Branch1][O],{[$]c1cc2c(-c3ccc([Cr])s3)c3sc(-c4sc([$])c5c(F)c(C(=O)O[Cr])sc45)cc3c(-c3ccc([Cr])s3)c2s1}.N#CC(C#N)=C1/C(=C/c2cc(S[Cr])c(-c3cc4c(s3)-c3cc5c(cc3C4(c3ccc([Mo])cc3)c3ccc([Mo])cc3)-c3sc(-c4sc(/C=C6\C(=O)c7cc(F)c(F)cc7C6=C(C#N)C#N)cc4S[Cr])cc3C5(c3ccc([Mo])cc3)c3ccc([Mo])cc3)s2)C(=O)c2cc(F)c(F)cc21
PB24-3TDC,ITIC-Th,-5.36,-3.58,1.91,-1.7800000000000002,-5.673333333333334,-3.908888888888889,-1.764444444444445,1.6,1:1.5,CB,DIO,25.0,PEDOT:PSS,C60-bissalt,10.3,10.304448,0.902,16.8,68.0,Cc1ccc(-c2c(F)c(F)c(-c3ccc(-c4cc(C(=O)O[Sc])c(-c5ccc(-c6sc(C)cc6C(=O)O[Sc])s5)s4)s3)c3nn([Cr])nc23)s1.N#CC(C#N)=C1/C(=C/c2cc3sc4c(c3s2)C(c2ccc([Mo])s2)(c2ccc([Mo])s2)c2cc3c(cc2-4)C(c2ccc([Mo])s2)(c2ccc([Mo])s2)c2c-3sc3cc(/C=C4\C(=O)c5ccccc5C4=C(C#N)C#N)sc23)C(=O)c2ccccc21,[C][C][=C][C][=C][Branch2][#Branch1][C][C][=C][Branch1][C][F][C][Branch1][C][F][=C][Branch2][Branch1][Branch2][C][=C][C][=C][Branch2][Ring2][=N][C][=C][C][Branch1][#Branch1][C][=Branch1][C][=O][O][Sc][=C][Branch2][Ring1][#Branch2][C][=C][C][=C][Branch1][P][C][S][C][Branch1][C][C][=C][C][=Ring1][=Branch1][C][=Branch1][C][=O][O][Sc][S][Ring1][#C][S][Ring2][Ring1][Branch2][S][Ring2][Ring1][=N][C][=N][N][Branch1][C][Cr][N][=C][Ring2][Ring2][=Branch2][Ring1][=Branch1][S][Ring2][Ring2][=C].[N][#C][C][Branch1][Ring1][C][#N][=C][/C][=Branch2][=Branch2][O][=C][/C][=C][C][S][C][=C][Branch1][#Branch1][C][=Ring1][Branch1][S][Ring1][Branch2][C][Branch1][O][C][=C][C][=C][Branch1][C][Mo][S][Ring1][=Branch1][Branch1][O][C][=C][C][=C][Branch1][C][Mo][S][Ring1][=Branch1][C][=C][C][=C][Branch1][Branch2][C][=C][Ring1][=Branch1][Ring2][Ring1][#Branch1][C][Branch1][O][C][=C][C][=C][Branch1][C][Mo][S][Ring1][=Branch1][Branch1][O][C][=C][C][=C][Branch1][C][Mo][S][Ring1][=Branch1][C][=C][Ring2][Ring1][Ring1][S][C][C][=C][Branch2][Ring1][=Branch2][/C][=C][\C][=Branch1][C][=O][C][=C][C][=C][C][=C][Ring1][=Branch1][C][Ring1][#Branch2][=C][Branch1][Ring1][C][#N][C][#N][S][C][Ring2][Ring1][Branch2][=Ring2][Ring1][Branch1][C][=Branch1][C][=O][C][=C][C][=C][C][=C][Ring1][=Branch1][Ring2][=Branch1][O],{[$]c1ccc(-c2c(F)c(F)c(-c3ccc(-c4cc(C(=O)O[Sc])c(-c5ccc(-c6sc([$])cc6C(=O)O[Sc])s5)s4)s3)c3nn([Cr])nc23)s1}.N#CC(C#N)=C1/C(=C/c2cc3sc4c(c3s2)C(c2ccc([Mo])s2)(c2ccc([Mo])s2)c2cc3c(cc2-4)C(c2ccc([Mo])s2)(c2ccc([Mo])s2)c2c-3sc3cc(/C=C4\C(=O)c5ccccc5C4=C(C#N)C#N)sc23)C(=O)c2ccccc21