Donor,Acceptor,HOMO_D_eV,LUMO_D_eV,HOMO_A_eV,LUMO_A_eV,D_A_ratio_m_m,solvent,total_solids_conc_mg_mL,solvent_additive,annealing_temperature,PCE_percent,calc_PCE_percent,Voc_V,Jsc_mA_cm_pow_neg2,FF_percent,DA_SMILES,DA_SELFIES,DA_BigSMILES
PDBT-T1,IC-C6IDT-IC,-5.36,-3.43,-5.69,-3.91,1.0,CF,12.0,_,25.0,8.71,8.71,0.89,15.05,65.0,CCCCCCCCc1ccc(-c2c3sc4cc(-c5ccc(-c6sc(-c7ccc(C)s7)c7c6C(=O)c6c(CC(CC)CCCC)sc(CC(CC)CCCC)c6C7=O)s5)sc4c3c(-c3ccc(CCCCCCCC)s3)c3sc4cc(C)sc4c23)s1.CCCCCCC1(CCCCCC)c2cc3c(cc2-c2sc(/C=C4\C(=O)c5ccccc5C4=C(C#N)C#N)cc21)C(CCCCCC)(CCCCCC)c1cc(/C=C2\C(=O)c4ccccc4C2=C(C#N)C#N)sc1-3,[C][C][C][C][C][C][C][C][C][=C][C][=C][Branch2][=Branch2][P][C][=C][S][C][C][=C][Branch2][=Branch1][Branch2][C][=C][C][=C][Branch2][Branch1][=N][C][S][C][Branch1][O][C][=C][C][=C][Branch1][C][C][S][Ring1][=Branch1][=C][C][=Ring1][O][C][=Branch1][C][=O][C][=C][Branch1][O][C][C][Branch1][Ring1][C][C][C][C][C][C][S][C][Branch1][O][C][C][Branch1][Ring1][C][C][C][C][C][C][=C][Ring2][Ring1][Branch1][C][Ring2][Ring1][#Branch2][=O][S][Ring2][Ring2][=Branch2][S][C][=Ring2][Ring2][=C][C][Ring2][Ring2][P][=C][Branch2][Ring1][C][C][=C][C][=C][Branch1][=Branch2][C][C][C][C][C][C][C][C][S][Ring1][=N][C][S][C][C][=C][Branch1][C][C][S][C][=Ring1][=Branch1][C][Ring2][=Branch1][=Branch2][=Ring1][=Branch2][S][Ring2][=Branch1][=C].[C][C][C][C][C][C][C][Branch1][#Branch1][C][C][C][C][C][C][C][=C][C][=C][Branch2][Ring2][O][C][=C][Ring1][=Branch1][C][S][C][Branch2][Ring1][=Branch2][/C][=C][\C][=Branch1][C][=O][C][=C][C][=C][C][=C][Ring1][=Branch1][C][Ring1][#Branch2][=C][Branch1][Ring1][C][#N][C][#N][=C][C][=Ring2][Ring1][Branch1][Ring2][Ring2][C][C][Branch1][#Branch1][C][C][C][C][C][C][Branch1][#Branch1][C][C][C][C][C][C][C][C][=C][Branch2][Ring1][=Branch2][/C][=C][\C][=Branch1][C][=O][C][=C][C][=C][C][=C][Ring1][=Branch1][C][Ring1][#Branch2][=C][Branch1][Ring1][C][#N][C][#N][S][C][=Ring2][Ring1][Branch1][Ring2][Branch1][O],{[$]CCCCCCCc1ccc(-c2c3sc4cc(-c5ccc(-c6sc(-c7ccc[$]s7)c7c6C(=O)c6c(CC(CC)CCCC)sc(CC(CC)CCCC)c6C7=O)s5)sc4c3c(-c3ccc(CCCCCCCC)s3)c3sc4cc[$]sc4c23)s1}.CCCCCCC1(CCCCCC)c2cc3c(cc2-c2sc(/C=C4\C(=O)c5ccccc5C4=C(C#N)C#N)cc21)C(CCCCCC)(CCCCCC)c1cc(/C=C2\C(=O)c4ccccc4C2=C(C#N)C#N)sc1-3
PMOT16,ITIC,-5.52,-3.66,-5.574146341463415,-3.915,1.0,CF,12.0,DIO,25.0,7.63,7.64,1.001,13.0,58.7,CCCCCCCCC(CCCCCC)CN1C(=O)c2c(-c3cc4sc(C)c(CCCCCC)c4s3)sc(-c3cc4sc(-c5cc6c(-c7cc(OC)c(CC(CC)CCCC)s7)c7sc(C)cc7c(-c7cc(OC)c(CC(CC)CCCC)s7)c6s5)c(CCCCCC)c4s3)c2C1=O.CCCCCCc1ccc(C2(c3ccc(CCCCCC)cc3)c3cc4c(cc3-c3sc5cc(/C=C6\C(=O)c7ccccc7C6=C(C#N)C#N)sc5c32)C(c2ccc(CCCCCC)cc2)(c2ccc(CCCCCC)cc2)c2c-4sc3cc(/C=C4\C(=O)c5ccccc5C4=C(C#N)C#N)sc23)cc1,[C][C][C][C][C][C][C][C][C][Branch1][#Branch1][C][C][C][C][C][C][C][N][C][=Branch1][C][=O][C][=C][Branch2][Ring1][Branch2][C][=C][C][S][C][Branch1][C][C][=C][Branch1][#Branch1][C][C][C][C][C][C][C][=Ring1][N][S][Ring1][#C][S][C][Branch2][Branch2][Branch1][C][=C][C][S][C][Branch2][=Branch1][N][C][=C][C][=C][Branch2][Ring1][Branch2][C][=C][C][Branch1][Ring1][O][C][=C][Branch1][O][C][C][Branch1][Ring1][C][C][C][C][C][C][S][Ring1][#C][C][S][C][Branch1][C][C][=C][C][=Ring1][=Branch1][C][Branch2][Ring1][Branch2][C][=C][C][Branch1][Ring1][O][C][=C][Branch1][O][C][C][Branch1][Ring1][C][C][C][C][C][C][S][Ring1][#C][=C][Ring2][Ring2][Branch2][S][Ring2][Ring2][O][=C][Branch1][#Branch1][C][C][C][C][C][C][C][=Ring2][Branch1][=Branch1][S][Ring2][Branch1][=Branch2][=C][Ring2][=Branch1][=N][C][Ring2][=Branch1][P][=O].[C][C][C][C][C][C][C][=C][C][=C][Branch2][O][N][C][Branch1][P][C][=C][C][=C][Branch1][#Branch1][C][C][C][C][C][C][C][=C][Ring1][N][C][=C][C][=C][Branch2][Ring2][P][C][=C][Ring1][=Branch1][C][S][C][C][=C][Branch2][Ring1][=Branch2][/C][=C][\C][=Branch1][C][=O][C][=C][C][=C][C][=C][Ring1][=Branch1][C][Ring1][#Branch2][=C][Branch1][Ring1][C][#N][C][#N][S][C][=Ring2][Ring1][Branch1][C][=Ring2][Ring1][Branch2][Ring2][Ring2][O][C][Branch1][P][C][=C][C][=C][Branch1][#Branch1][C][C][C][C][C][C][C][=C][Ring1][N][Branch1][P][C][=C][C][=C][Branch1][#Branch1][C][C][C][C][C][C][C][=C][Ring1][N][C][=C][Ring2][Branch1][#Branch1][S][C][C][=C][Branch2][Ring1][=Branch2][/C][=C][\C][=Branch1][C][=O][C][=C][C][=C][C][=C][Ring1][=Branch1][C][Ring1][#Branch2][=C][Branch1][Ring1][C][#N][C][#N][S][C][Ring2][Ring1][Branch2][=Ring2][Ring1][Branch1][C][=C][Ring2][Branch2][C],{[$]CCCCCCCC(CCCCCC)CN1C(=O)c2c(-c3cc4sc[$]c(CCCCCC)c4s3)sc(-c3cc4sc(-c5cc6c(-c7cc(OC)c(CC(CC)CCCC)s7)c7sc[$]cc7c(-c7cc(OC)c(CC(CC)CCCC)s7)c6s5)c(CCCCCC)c4s3)c2C1=O}.CCCCCCc1ccc(C2(c3ccc(CCCCCC)cc3)c3cc4c(cc3-c3sc5cc(/C=C6\C(=O)c7ccccc7C6=C(C#N)C#N)sc5c32)C(c2ccc(CCCCCC)cc2)(c2ccc(CCCCCC)cc2)c2c-4sc3cc(/C=C4\C(=O)c5ccccc5C4=C(C#N)C#N)sc23)cc1
PBDTT-6ttTPD,IDIC,-5.36,-3.51,-5.706,-4.002666666666667,1.0,CF,12.0,DIO,25.0,8.58,8.58,0.822,15.93,65.5,CCCCCCCCCCC(CCCCCC)N1C(=O)c2c(-c3cc4sc(C)c(CCCCCC)c4s3)sc(-c3cc4sc(-c5cc6c(-c7ccc(C(CC)CCCCCC)s7)c7sc(C)cc7c(-c7ccc(C(CC)CCCCCC)s7)c6s5)c(CCCCCC)c4s3)c2C1=O.CCCCCCC1(CCCCCC)c2cc3c(cc2-c2sc(/C=C4\C(=O)c5ccccc5C4=C(C#N)C#N)cc21)C(CCCCCC)(CCCCCC)c1cc(/C=C2\C(=O)c4ccccc4C2=C(C#N)C#N)sc1-3,[C][C][C][C][C][C][C][C][C][C][C][Branch1][#Branch1][C][C][C][C][C][C][N][C][=Branch1][C][=O][C][=C][Branch2][Ring1][Branch2][C][=C][C][S][C][Branch1][C][C][=C][Branch1][#Branch1][C][C][C][C][C][C][C][=Ring1][N][S][Ring1][#C][S][C][Branch2][#Branch1][#C][C][=C][C][S][C][Branch2][=Branch1][=Branch1][C][=C][C][=C][Branch2][Ring1][Branch1][C][=C][C][=C][Branch1][N][C][Branch1][Ring1][C][C][C][C][C][C][C][C][S][Ring1][=C][C][S][C][Branch1][C][C][=C][C][=Ring1][=Branch1][C][Branch2][Ring1][Branch1][C][=C][C][=C][Branch1][N][C][Branch1][Ring1][C][C][C][C][C][C][C][C][S][Ring1][=C][=C][Ring2][Ring2][=Branch1][S][Ring2][Ring2][=Branch2][=C][Branch1][#Branch1][C][C][C][C][C][C][C][=Ring2][Branch1][Ring2][S][Ring2][Branch1][#Branch1][=C][Ring2][=Branch1][O][C][Ring2][=Branch1][#C][=O].[C][C][C][C][C][C][C][Branch1][#Branch1][C][C][C][C][C][C][C][=C][C][=C][Branch2][Ring2][O][C][=C][Ring1][=Branch1][C][S][C][Branch2][Ring1][=Branch2][/C][=C][\C][=Branch1][C][=O][C][=C][C][=C][C][=C][Ring1][=Branch1][C][Ring1][#Branch2][=C][Branch1][Ring1][C][#N][C][#N][=C][C][=Ring2][Ring1][Branch1][Ring2][Ring2][C][C][Branch1][#Branch1][C][C][C][C][C][C][Branch1][#Branch1][C][C][C][C][C][C][C][C][=C][Branch2][Ring1][=Branch2][/C][=C][\C][=Branch1][C][=O][C][=C][C][=C][C][=C][Ring1][=Branch1][C][Ring1][#Branch2][=C][Branch1][Ring1][C][#N][C][#N][S][C][=Ring2][Ring1][Branch1][Ring2][Branch1][O],{[$]CCCCCCCCCC(CCCCCC)N1C(=O)c2c(-c3cc4sc[$]c(CCCCCC)c4s3)sc(-c3cc4sc(-c5cc6c(-c7ccc(C(CC)CCCCCC)s7)c7sc[$]cc7c(-c7ccc(C(CC)CCCCCC)s7)c6s5)c(CCCCCC)c4s3)c2C1=O}.CCCCCCC1(CCCCCC)c2cc3c(cc2-c2sc(/C=C4\C(=O)c5ccccc5C4=C(C#N)C#N)cc21)C(CCCCCC)(CCCCCC)c1cc(/C=C2\C(=O)c4ccccc4C2=C(C#N)C#N)sc1-3
PMOT16,IDIC,-5.52,-3.66,-5.706,-4.002666666666667,1.0,CF,12.0,DIO,25.0,10.04,10.04,0.925,16.13,67.3,CCCCCCCCC(CCCCCC)CN1C(=O)c2c(-c3cc4sc(C)c(CCCCCC)c4s3)sc(-c3cc4sc(-c5cc6c(-c7cc(OC)c(CC(CC)CCCC)s7)c7sc(C)cc7c(-c7cc(OC)c(CC(CC)CCCC)s7)c6s5)c(CCCCCC)c4s3)c2C1=O.CCCCCCC1(CCCCCC)c2cc3c(cc2-c2sc(/C=C4\C(=O)c5ccccc5C4=C(C#N)C#N)cc21)C(CCCCCC)(CCCCCC)c1cc(/C=C2\C(=O)c4ccccc4C2=C(C#N)C#N)sc1-3,[C][C][C][C][C][C][C][C][C][Branch1][#Branch1][C][C][C][C][C][C][C][N][C][=Branch1][C][=O][C][=C][Branch2][Ring1][Branch2][C][=C][C][S][C][Branch1][C][C][=C][Branch1][#Branch1][C][C][C][C][C][C][C][=Ring1][N][S][Ring1][#C][S][C][Branch2][Branch2][Branch1][C][=C][C][S][C][Branch2][=Branch1][N][C][=C][C][=C][Branch2][Ring1][Branch2][C][=C][C][Branch1][Ring1][O][C][=C][Branch1][O][C][C][Branch1][Ring1][C][C][C][C][C][C][S][Ring1][#C][C][S][C][Branch1][C][C][=C][C][=Ring1][=Branch1][C][Branch2][Ring1][Branch2][C][=C][C][Branch1][Ring1][O][C][=C][Branch1][O][C][C][Branch1][Ring1][C][C][C][C][C][C][S][Ring1][#C][=C][Ring2][Ring2][Branch2][S][Ring2][Ring2][O][=C][Branch1][#Branch1][C][C][C][C][C][C][C][=Ring2][Branch1][=Branch1][S][Ring2][Branch1][=Branch2][=C][Ring2][=Branch1][=N][C][Ring2][=Branch1][P][=O].[C][C][C][C][C][C][C][Branch1][#Branch1][C][C][C][C][C][C][C][=C][C][=C][Branch2][Ring2][O][C][=C][Ring1][=Branch1][C][S][C][Branch2][Ring1][=Branch2][/C][=C][\C][=Branch1][C][=O][C][=C][C][=C][C][=C][Ring1][=Branch1][C][Ring1][#Branch2][=C][Branch1][Ring1][C][#N][C][#N][=C][C][=Ring2][Ring1][Branch1][Ring2][Ring2][C][C][Branch1][#Branch1][C][C][C][C][C][C][Branch1][#Branch1][C][C][C][C][C][C][C][C][=C][Branch2][Ring1][=Branch2][/C][=C][\C][=Branch1][C][=O][C][=C][C][=C][C][=C][Ring1][=Branch1][C][Ring1][#Branch2][=C][Branch1][Ring1][C][#N][C][#N][S][C][=Ring2][Ring1][Branch1][Ring2][Branch1][O],{[$]CCCCCCCC(CCCCCC)CN1C(=O)c2c(-c3cc4sc[$]c(CCCCCC)c4s3)sc(-c3cc4sc(-c5cc6c(-c7cc(OC)c(CC(CC)CCCC)s7)c7sc[$]cc7c(-c7cc(OC)c(CC(CC)CCCC)s7)c6s5)c(CCCCCC)c4s3)c2C1=O}.CCCCCCC1(CCCCCC)c2cc3c(cc2-c2sc(/C=C4\C(=O)c5ccccc5C4=C(C#N)C#N)cc21)C(CCCCCC)(CCCCCC)c1cc(/C=C2\C(=O)c4ccccc4C2=C(C#N)C#N)sc1-3
PTZP,IDIC,-5.41,-3.4,-5.706,-4.002666666666667,0.667,CB,18.0,DIO,25.0,11.8,11.81,0.9,17.9,73.3,CCCCCCC(CCCC)CSc1ccc(-c2c3cc(-c4sc(-c5nc6sc(-c7cc(CC(CC)CCCC)c(C)s7)nc6s5)cc4CC(CC)CCCC)sc3c(-c3ccc(SCC(CCCC)CCCCCC)s3)c3cc(C)sc23)s1.CCCCCCC1(CCCCCC)c2cc3c(cc2-c2sc(/C=C4\C(=O)c5ccccc5C4=C(C#N)C#N)cc21)C(CCCCCC)(CCCCCC)c1cc(/C=C2\C(=O)c4ccccc4C2=C(C#N)C#N)sc1-3,[C][C][C][C][C][C][C][Branch1][Branch1][C][C][C][C][C][S][C][=C][C][=C][Branch2][=Branch2][Ring1][C][=C][C][=C][Branch2][Branch1][=N][C][S][C][Branch2][Ring2][Branch2][C][=N][C][S][C][Branch2][Ring1][#Branch1][C][=C][C][Branch1][O][C][C][Branch1][Ring1][C][C][C][C][C][C][=C][Branch1][C][C][S][Ring1][=C][=N][C][=Ring2][Ring1][Ring1][S][Ring2][Ring1][=Branch1][=C][C][=Ring2][Ring1][O][C][C][Branch1][Ring1][C][C][C][C][C][C][S][C][Ring2][Ring2][Branch2][=C][Branch2][Ring1][#Branch2][C][=C][C][=C][Branch1][S][S][C][C][Branch1][Branch1][C][C][C][C][C][C][C][C][C][C][S][Ring2][Ring1][C][C][C][=C][Branch1][C][C][S][C][Ring2][=Branch1][C][=Ring1][=Branch1][S][Ring2][=Branch1][#Branch1].[C][C][C][C][C][C][C][Branch1][#Branch1][C][C][C][C][C][C][C][=C][C][=C][Branch2][Ring2][O][C][=C][Ring1][=Branch1][C][S][C][Branch2][Ring1][=Branch2][/C][=C][\C][=Branch1][C][=O][C][=C][C][=C][C][=C][Ring1][=Branch1][C][Ring1][#Branch2][=C][Branch1][Ring1][C][#N][C][#N][=C][C][=Ring2][Ring1][Branch1][Ring2][Ring2][C][C][Branch1][#Branch1][C][C][C][C][C][C][Branch1][#Branch1][C][C][C][C][C][C][C][C][=C][Branch2][Ring1][=Branch2][/C][=C][\C][=Branch1][C][=O][C][=C][C][=C][C][=C][Ring1][=Branch1][C][Ring1][#Branch2][=C][Branch1][Ring1][C][#N][C][#N][S][C][=Ring2][Ring1][Branch1][Ring2][Branch1][O],{[$]CCCCCC(CCCC)CSc1ccc(-c2c3cc(-c4sc(-c5nc6sc(-c7cc(CC(CC)CCCC)c[$]s7)nc6s5)cc4CC(CC)CCCC)sc3c(-c3ccc(SCC(CCCC)CCCCCC)s3)c3cc[$]sc23)s1}.CCCCCCC1(CCCCCC)c2cc3c(cc2-c2sc(/C=C4\C(=O)c5ccccc5C4=C(C#N)C#N)cc21)C(CCCCCC)(CCCCCC)c1cc(/C=C2\C(=O)c4ccccc4C2=C(C#N)C#N)sc1-3
PffBT2T-TT,O-IDTBR,-5.42,-3.52,-5.535,-3.74,0.667,"1,2,4-trimethylbenzene",17.5,_,90.0,10.4,10.36,1.08,14.32,67.0,CCCCCCCCCCCC(CCCCCCCCC)Cc1cc(-c2c(F)c(F)c(-c3cc(CC(CCCCCCCCC)CCCCCCCCCCC)c(-c4cc5sc(C)cc5s4)s3)c3nsnc23)sc1C.CCCCCCCCC1(CCCCCCCC)c2cc3c(cc2-c2sc(-c4ccc(/C=C5\SC(=S)N(CC)C5=O)c5nsnc45)cc21)C(CCCCCCCC)(CCCCCCCC)c1cc(-c2ccc(/C=C4\SC(=S)N(CC)C4=O)c4nsnc24)sc1-3,[C][C][C][C][C][C][C][C][C][C][C][C][Branch1][#Branch2][C][C][C][C][C][C][C][C][C][C][C][C][=C][Branch2][=Branch1][N][C][=C][Branch1][C][F][C][Branch1][C][F][=C][Branch2][Branch1][Branch1][C][=C][C][Branch2][Ring1][=Branch2][C][C][Branch1][#Branch2][C][C][C][C][C][C][C][C][C][C][C][C][C][C][C][C][C][C][C][C][=C][Branch1][S][C][=C][C][S][C][Branch1][C][C][=C][C][=Ring1][=Branch1][S][Ring1][=Branch2][S][Ring2][Ring2][Ring2][C][=N][S][N][=C][Ring2][Ring2][#C][Ring1][Branch1][S][C][=Ring2][Branch1][Ring2][C].[C][C][C][C][C][C][C][C][C][Branch1][=Branch2][C][C][C][C][C][C][C][C][C][=C][C][=C][Branch2][Branch1][Ring1][C][=C][Ring1][=Branch1][C][S][C][Branch2][Ring1][P][C][=C][C][=C][Branch1][P][/C][=C][\S][C][=Branch1][C][=S][N][Branch1][Ring1][C][C][C][Ring1][Branch2][=O][C][=N][S][N][=C][Ring2][Ring1][Ring1][Ring1][Branch1][=C][C][=Ring2][Ring1][Branch2][Ring2][Ring2][#Branch1][C][Branch1][=Branch2][C][C][C][C][C][C][C][C][Branch1][=Branch2][C][C][C][C][C][C][C][C][C][C][=C][Branch2][Ring1][P][C][=C][C][=C][Branch1][P][/C][=C][\S][C][=Branch1][C][=S][N][Branch1][Ring1][C][C][C][Ring1][Branch2][=O][C][=N][S][N][=C][Ring2][Ring1][Ring1][Ring1][Branch1][S][C][=Ring2][Ring1][Branch2][Ring2][=Branch1][Branch1],{[$]CCCCCCCCCCC(CCCCCCCCC)Cc1cc(-c2c(F)c(F)c(-c3cc(CC(CCCCCCCCC)CCCCCCCCCCC)c(-c4cc5sc[$]cc5s4)s3)c3nsnc23)sc1C}.CCCCCCCCC1(CCCCCCCC)c2cc3c(cc2-c2sc(-c4ccc(/C=C5\SC(=S)N(CC)C5=O)c5nsnc45)cc21)C(CCCCCCCC)(CCCCCCCC)c1cc(-c2ccc(/C=C4\SC(=S)N(CC)C4=O)c4nsnc24)sc1-3
PTB7-Th,IDT-BT-R,-5.204782608695651,-3.5391891891891896,-5.3,-3.56,0.667,DCB,25.0,_,150.0,8.2,8.2,1.02,13.6,59.1,CCCCC(CC)COC(=O)c1sc2c(-c3cc4c(-c5ccc(CC(CC)CCCC)s5)c5sc(C)cc5c(-c5ccc(CC(CC)CCCC)s5)c4s3)sc(C)c2c1F.CCCCCCc1ccc(C2(c3ccc(CCCCCC)cc3)c3cc4c(cc3-c3sc(-c5ccc(/C=C6\SC(=S)N(CC)C6=O)c6nsnc56)cc32)C(c2ccc(CCCCCC)cc2)(c2ccc(CCCCCC)cc2)c2cc(-c3ccc(/C=C5\SC(=S)N(CC)C5=O)c5nsnc35)sc2-4)cc1,[C][C][C][C][C][Branch1][Ring1][C][C][C][O][C][=Branch1][C][=O][C][S][C][=C][Branch2][=Branch1][Ring2][C][=C][C][=C][Branch2][Ring1][Ring2][C][=C][C][=C][Branch1][O][C][C][Branch1][Ring1][C][C][C][C][C][C][S][Ring1][=N][C][S][C][Branch1][C][C][=C][C][=Ring1][=Branch1][C][Branch2][Ring1][Ring2][C][=C][C][=C][Branch1][O][C][C][Branch1][Ring1][C][C][C][C][C][C][S][Ring1][=N][=C][Ring2][Ring2][Ring2][S][Ring2][Ring2][#Branch1][S][C][Branch1][C][C][=C][Ring2][Ring2][=N][C][=Ring2][Ring2][S][F].[C][C][C][C][C][C][C][=C][C][=C][Branch2][O][S][C][Branch1][P][C][=C][C][=C][Branch1][#Branch1][C][C][C][C][C][C][C][=C][Ring1][N][C][=C][C][=C][Branch2][Branch1][Ring1][C][=C][Ring1][=Branch1][C][S][C][Branch2][Ring1][P][C][=C][C][=C][Branch1][P][/C][=C][\S][C][=Branch1][C][=S][N][Branch1][Ring1][C][C][C][Ring1][Branch2][=O][C][=N][S][N][=C][Ring2][Ring1][Ring1][Ring1][Branch1][=C][C][=Ring2][Ring1][Branch2][Ring2][Ring2][O][C][Branch1][P][C][=C][C][=C][Branch1][#Branch1][C][C][C][C][C][C][C][=C][Ring1][N][Branch1][P][C][=C][C][=C][Branch1][#Branch1][C][C][C][C][C][C][C][=C][Ring1][N][C][C][=C][Branch2][Ring1][P][C][=C][C][=C][Branch1][P][/C][=C][\S][C][=Branch1][C][=S][N][Branch1][Ring1][C][C][C][Ring1][Branch2][=O][C][=N][S][N][=C][Ring2][Ring1][Ring1][Ring1][Branch1][S][C][=Ring2][Ring1][Branch2][Ring2][=Branch1][=N][C][=C][Ring2][Branch2][C],{[$]CCCC(CC)COC(=O)c1sc2c(-c3cc4c(-c5ccc(CC(CC)CCCC)s5)c5sc[$]cc5c(-c5ccc(CC(CC)CCCC)s5)c4s3)sc[$]c2c1F}.CCCCCCc1ccc(C2(c3ccc(CCCCCC)cc3)c3cc4c(cc3-c3sc(-c5ccc(/C=C6\SC(=S)N(CC)C6=O)c6nsnc56)cc32)C(c2ccc(CCCCCC)cc2)(c2ccc(CCCCCC)cc2)c2cc(-c3ccc(/C=C5\SC(=S)N(CC)C5=O)c5nsnc35)sc2-4)cc1
PTB7-Th,IDT-BT-R-CN,-5.204782608695651,-3.5391891891891896,-5.38,-3.67,0.5,DCB,25.0,_,150.0,5.5,5.47,0.88,12.4,50.1,CCCCC(CC)COC(=O)c1sc2c(-c3cc4c(-c5ccc(CC(CC)CCCC)s5)c5sc(C)cc5c(-c5ccc(CC(CC)CCCC)s5)c4s3)sc(C)c2c1F.CCCCCCc1ccc(C2(c3ccc(CCCCCC)cc3)c3cc4c(cc3-c3sc(-c5ccc(/C=c6/sc(=C(C#N)C#N)n(CCCCCC)c6=O)c6nsnc56)cc32)C(c2ccc(CCCCCC)cc2)(c2ccc(CCCCCC)cc2)c2cc(-c3ccc(/C=c5/sc(=C(C#N)C#N)n(CCCCCC)c5=O)c5nsnc35)sc2-4)cc1,[C][C][C][C][C][Branch1][Ring1][C][C][C][O][C][=Branch1][C][=O][C][S][C][=C][Branch2][=Branch1][Ring2][C][=C][C][=C][Branch2][Ring1][Ring2][C][=C][C][=C][Branch1][O][C][C][Branch1][Ring1][C][C][C][C][C][C][S][Ring1][=N][C][S][C][Branch1][C][C][=C][C][=Ring1][=Branch1][C][Branch2][Ring1][Ring2][C][=C][C][=C][Branch1][O][C][C][Branch1][Ring1][C][C][C][C][C][C][S][Ring1][=N][=C][Ring2][Ring2][Ring2][S][Ring2][Ring2][#Branch1][S][C][Branch1][C][C][=C][Ring2][Ring2][=N][C][=Ring2][Ring2][S][F].[C][C][C][C][C][C][C][=C][C][=C][Branch2][=N][=Branch1][C][Branch1][P][C][=C][C][=C][Branch1][#Branch1][C][C][C][C][C][C][C][=C][Ring1][N][C][=C][C][=C][Branch2][Branch1][=C][C][=C][Ring1][=Branch1][C][S][C][Branch2][Ring2][N][C][=C][C][=C][Branch2][Ring1][O][/C][=C][/S][C][=Branch1][Branch2][=C][Branch1][Ring1][C][#N][C][#N][N][Branch1][#Branch1][C][C][C][C][C][C][C][Ring1][S][=O][C][=N][S][N][=C][Ring2][Ring1][O][Ring1][Branch1][=C][C][=Ring2][Ring1][S][Ring2][Branch1][Ring1][C][Branch1][P][C][=C][C][=C][Branch1][#Branch1][C][C][C][C][C][C][C][=C][Ring1][N][Branch1][P][C][=C][C][=C][Branch1][#Branch1][C][C][C][C][C][C][C][=C][Ring1][N][C][C][=C][Branch2][Ring2][N][C][=C][C][=C][Branch2][Ring1][O][/C][=C][/S][C][=Branch1][Branch2][=C][Branch1][Ring1][C][#N][C][#N][N][Branch1][#Branch1][C][C][C][C][C][C][C][Ring1][S][=O][C][=N][S][N][=C][Ring2][Ring1][O][Ring1][Branch1][S][C][=Ring2][Ring1][S][Ring2][#Branch1][=N][C][=C][Ring2][=Branch2][C],{[$]CCCC(CC)COC(=O)c1sc2c(-c3cc4c(-c5ccc(CC(CC)CCCC)s5)c5sc[$]cc5c(-c5ccc(CC(CC)CCCC)s5)c4s3)sc[$]c2c1F}.CCCCCCc1ccc(C2(c3ccc(CCCCCC)cc3)c3cc4c(cc3-c3sc(-c5ccc(/C=c6/sc(=C(C#N)C#N)n(CCCCCC)c6=O)c6nsnc56)cc32)C(c2ccc(CCCCCC)cc2)(c2ccc(CCCCCC)cc2)c2cc(-c3ccc(/C=c5/sc(=C(C#N)C#N)n(CCCCCC)c5=O)c5nsnc35)sc2-4)cc1
P3HT,BTA1,-5.057777777777777,-2.989444444444445,-5.510000000000001,-3.5499999999999994,1.667,CF,15.0,CN,100.0,5.24,5.24,1.02,7.34,70.0,CCCCCCc1cc(-c2sc(-c3sc(-c4sc(C)cc4CCCCCC)cc3CCCCCC)cc2CCCCCC)sc1C.CCCCCCCCn1nc2c(/C=C3\SC(=S)N(CC)C3=O)ccc(-c3cc4c(s3)-c3cc5c(cc3C4(c3ccc(CCCCCC)cc3)c3ccc(CCCCCC)cc3)-c3sc(-c4ccc(/C=C6\SC(=S)N(CC)C6=O)c6nn(CCCCCCCC)nc46)cc3C5(c3ccc(CCCCCC)cc3)c3ccc(CCCCCC)cc3)c2n1,[C][C][C][C][C][C][C][C][=C][Branch2][Ring2][P][C][S][C][Branch2][Ring1][S][C][S][C][Branch1][P][C][S][C][Branch1][C][C][=C][C][=Ring1][=Branch1][C][C][C][C][C][C][=C][C][=Ring1][P][C][C][C][C][C][C][=C][C][=Ring2][Ring1][N][C][C][C][C][C][C][S][C][=Ring2][Ring2][#Branch1][C].[C][C][C][C][C][C][C][C][N][N][=C][C][Branch1][P][/C][=C][\S][C][=Branch1][C][=S][N][Branch1][Ring1][C][C][C][Ring1][Branch2][=O][=C][C][=C][Branch2][O][Branch1][C][=C][C][=C][Branch1][Ring2][S][Ring1][Branch1][C][=C][C][=C][Branch2][Ring2][#Branch2][C][=C][Ring1][=Branch1][C][Ring1][#Branch2][Branch1][P][C][=C][C][=C][Branch1][#Branch1][C][C][C][C][C][C][C][=C][Ring1][N][C][=C][C][=C][Branch1][#Branch1][C][C][C][C][C][C][C][=C][Ring1][N][C][S][C][Branch2][Ring2][O][C][=C][C][=C][Branch1][P][/C][=C][\S][C][=Branch1][C][=S][N][Branch1][Ring1][C][C][C][Ring1][Branch2][=O][C][=N][N][Branch1][=Branch2][C][C][C][C][C][C][C][C][N][=C][Ring2][Ring1][O][Ring1][=N][=C][C][=Ring2][Ring1][S][C][Ring2][Branch1][=C][Branch1][P][C][=C][C][=C][Branch1][#Branch1][C][C][C][C][C][C][C][=C][Ring1][N][C][=C][C][=C][Branch1][#Branch1][C][C][C][C][C][C][C][=C][Ring1][N][C][Ring2][Branch2][=N][=N][Ring2][Branch2][S],{[$]CCCCCc1cc(-c2sc(-c3sc(-c4sc[$]cc4CCCCCC)cc3CCCCCC)cc2CCCCCC)sc1C}.CCCCCCCCn1nc2c(/C=C3\SC(=S)N(CC)C3=O)ccc(-c3cc4c(s3)-c3cc5c(cc3C4(c3ccc(CCCCCC)cc3)c3ccc(CCCCCC)cc3)-c3sc(-c4ccc(/C=C6\SC(=S)N(CC)C6=O)c6nn(CCCCCCCC)nc46)cc3C5(c3ccc(CCCCCC)cc3)c3ccc(CCCCCC)cc3)c2n1