Donor,Acceptor,HOMO_D_eV,LUMO_D_eV,HOMO_A_eV,LUMO_A_eV,D_A_ratio_m_m,solvent,total_solids_conc_mg_mL,solvent_additive,annealing_temperature,PCE_percent,calc_PCE_percent,Voc_V,Jsc_mA_cm_pow_neg2,FF_percent,DA_SMILES,DA_SELFIES,DA_BigSMILES
PTB7-Th,IEICO-4F,-5.204782608695651,-3.5391891891891896,-5.309971428571429,-3.851028571428572,0.667,CB,25.0,CN,25.0,11.6,11.6,0.72,23.21,69.41,CCCCC(CC)COC(=O)c1sc2c(-c3cc4c(-c5ccc(CC(CC)CCCC)s5)c5sc(C)cc5c(-c5ccc(CC(CC)CCCC)s5)c4s3)sc(C)c2c1F.CCCCCCc1ccc(C2(c3ccc(CCCCCC)cc3)c3cc4c(cc3-c3sc(-c5sc(/C=C6\C(=O)c7cc(F)c(F)cc7C6=C(C#N)C#N)cc5OCC(CC)CCCC)cc32)C(c2ccc(CCCCCC)cc2)(c2ccc(CCCCCC)cc2)c2cc(-c3sc(/C=C5\C(=O)c6cc(F)c(F)cc6C5=C(C#N)C#N)cc3OCC(CC)CCCC)sc2-4)cc1,[C][C][C][C][C][Branch1][Ring1][C][C][C][O][C][=Branch1][C][=O][C][S][C][=C][Branch2][=Branch1][Ring2][C][=C][C][=C][Branch2][Ring1][Ring2][C][=C][C][=C][Branch1][O][C][C][Branch1][Ring1][C][C][C][C][C][C][S][Ring1][=N][C][S][C][Branch1][C][C][=C][C][=Ring1][=Branch1][C][Branch2][Ring1][Ring2][C][=C][C][=C][Branch1][O][C][C][Branch1][Ring1][C][C][C][C][C][C][S][Ring1][=N][=C][Ring2][Ring2][Ring2][S][Ring2][Ring2][#Branch1][S][C][Branch1][C][C][=C][Ring2][Ring2][=N][C][=Ring2][Ring2][S][F].[C][C][C][C][C][C][C][=C][C][=C][Branch2][=C][Branch2][C][Branch1][P][C][=C][C][=C][Branch1][#Branch1][C][C][C][C][C][C][C][=C][Ring1][N][C][=C][C][=C][Branch2][=Branch1][#Branch1][C][=C][Ring1][=Branch1][C][S][C][Branch2][Branch1][Branch1][C][S][C][Branch2][Ring1][#C][/C][=C][\C][=Branch1][C][=O][C][=C][C][Branch1][C][F][=C][Branch1][C][F][C][=C][Ring1][Branch2][C][Ring1][N][=C][Branch1][Ring1][C][#N][C][#N][=C][C][=Ring2][Ring1][#Branch1][O][C][C][Branch1][Ring1][C][C][C][C][C][C][=C][C][=Ring2][Ring2][Branch1][Ring2][Branch1][Branch2][C][Branch1][P][C][=C][C][=C][Branch1][#Branch1][C][C][C][C][C][C][C][=C][Ring1][N][Branch1][P][C][=C][C][=C][Branch1][#Branch1][C][C][C][C][C][C][C][=C][Ring1][N][C][C][=C][Branch2][Branch1][Branch1][C][S][C][Branch2][Ring1][#C][/C][=C][\C][=Branch1][C][=O][C][=C][C][Branch1][C][F][=C][Branch1][C][F][C][=C][Ring1][Branch2][C][Ring1][N][=C][Branch1][Ring1][C][#N][C][#N][=C][C][=Ring2][Ring1][#Branch1][O][C][C][Branch1][Ring1][C][C][C][C][C][C][S][C][=Ring2][Ring2][Branch1][Ring2][Branch2][#Branch1][C][=C][Ring2][=Branch2][N],{[$]CCCC(CC)COC(=O)c1sc2c(-c3cc4c(-c5ccc(CC(CC)CCCC)s5)c5sc[$]cc5c(-c5ccc(CC(CC)CCCC)s5)c4s3)sc[$]c2c1F}.CCCCCCc1ccc(C2(c3ccc(CCCCCC)cc3)c3cc4c(cc3-c3sc(-c5sc(/C=C6\C(=O)c7cc(F)c(F)cc7C6=C(C#N)C#N)cc5OCC(CC)CCCC)cc32)C(c2ccc(CCCCCC)cc2)(c2ccc(CCCCCC)cc2)c2cc(-c3sc(/C=C5\C(=O)c6cc(F)c(F)cc6C5=C(C#N)C#N)cc3OCC(CC)CCCC)sc2-4)cc1
PBDB-T,TTIC-M,-5.297714285714285,-3.4170000000000003,-5.49,-4.03,1.0,CB,20.0,_,25.0,9.85,9.97,0.83,19.07,63.0,CCCCC(CC)Cc1ccc(-c2c3cc(-c4ccc(-c5sc(-c6ccc(C)s6)c6c5C(=O)c5c(CC(CC)CCCC)sc(CC(CC)CCCC)c5C6=O)s4)sc3c(-c3ccc(CC(CC)CCCC)s3)c3cc(C)sc23)s1.CCCCCCc1ccc(C2(c3ccc(CCCCCC)cc3)c3cc(/C=C4\C(=O)c5ccc(C)cc5C4=C(C#N)C#N)sc3-c3sc4c5c(sc4c32)-c2sc(/C=C3\C(=O)c4ccc(C)cc4C3=C(C#N)C#N)cc2C5(c2ccc(CCCCCC)cc2)c2ccc(CCCCCC)cc2)cc1,[C][C][C][C][C][Branch1][Ring1][C][C][C][C][=C][C][=C][Branch2][=Branch2][Branch2][C][=C][C][=C][Branch2][=Branch1][Branch2][C][=C][C][=C][Branch2][Branch1][=N][C][S][C][Branch1][O][C][=C][C][=C][Branch1][C][C][S][Ring1][=Branch1][=C][C][=Ring1][O][C][=Branch1][C][=O][C][=C][Branch1][O][C][C][Branch1][Ring1][C][C][C][C][C][C][S][C][Branch1][O][C][C][Branch1][Ring1][C][C][C][C][C][C][=C][Ring2][Ring1][Branch1][C][Ring2][Ring1][#Branch2][=O][S][Ring2][Ring2][=Branch2][S][C][Ring2][Ring2][=C][=C][Branch2][Ring1][Ring2][C][=C][C][=C][Branch1][O][C][C][Branch1][Ring1][C][C][C][C][C][C][S][Ring1][=N][C][C][=C][Branch1][C][C][S][C][Ring2][=Branch1][Ring1][=Ring1][=Branch1][S][Ring2][=Branch1][Branch2].[C][C][C][C][C][C][C][=C][C][=C][Branch2][O][#Branch1][C][Branch1][P][C][=C][C][=C][Branch1][#Branch1][C][C][C][C][C][C][C][=C][Ring1][N][C][C][=C][Branch2][Ring1][N][/C][=C][\C][=Branch1][C][=O][C][=C][C][=C][Branch1][C][C][C][=C][Ring1][#Branch1][C][Ring1][O][=C][Branch1][Ring1][C][#N][C][#N][S][C][=Ring2][Ring1][=Branch1][C][S][C][C][=C][Branch1][O][S][C][=Ring1][Branch1][C][=Ring1][Branch2][Ring2][Ring2][O][C][S][C][Branch2][Ring1][N][/C][=C][\C][=Branch1][C][=O][C][=C][C][=C][Branch1][C][C][C][=C][Ring1][#Branch1][C][Ring1][O][=C][Branch1][Ring1][C][#N][C][#N][=C][C][=Ring2][Ring1][=Branch1][C][Ring2][Ring1][N][Branch1][P][C][=C][C][=C][Branch1][#Branch1][C][C][C][C][C][C][C][=C][Ring1][N][C][=C][C][=C][Branch1][#Branch1][C][C][C][C][C][C][C][=C][Ring1][N][C][=C][Ring2][#Branch1][S],{[$]CCCC(CC)Cc1ccc(-c2c3cc(-c4ccc(-c5sc(-c6ccc[$]s6)c6c5C(=O)c5c(CC(CC)CCCC)sc(CC(CC)CCCC)c5C6=O)s4)sc3c(-c3ccc(CC(CC)CCCC)s3)c3cc[$]sc23)s1}.CCCCCCc1ccc(C2(c3ccc(CCCCCC)cc3)c3cc(/C=C4\C(=O)c5ccc(C)cc5C4=C(C#N)C#N)sc3-c3sc4c5c(sc4c32)-c2sc(/C=C3\C(=O)c4ccc(C)cc4C3=C(C#N)C#N)cc2C5(c2ccc(CCCCCC)cc2)c2ccc(CCCCCC)cc2)cc1
PBDB-T,TTIC,-5.297714285714285,-3.4170000000000003,-5.54,-4.109999999999999,1.0,CB,20.0,_,25.0,10.73,10.87,0.8,20.58,66.0,CCCCC(CC)Cc1ccc(-c2c3cc(-c4ccc(-c5sc(-c6ccc(C)s6)c6c5C(=O)c5c(CC(CC)CCCC)sc(CC(CC)CCCC)c5C6=O)s4)sc3c(-c3ccc(CC(CC)CCCC)s3)c3cc(C)sc23)s1.CCCCCCc1ccc(C2(c3ccc(CCCCCC)cc3)c3cc(/C=C4\C(=O)c5ccccc5C4=C(C#N)C#N)sc3-c3sc4c5c(sc4c32)-c2sc(/C=C3\C(=O)c4ccccc4C3=C(C#N)C#N)cc2C5(c2ccc(CCCCCC)cc2)c2ccc(CCCCCC)cc2)cc1,[C][C][C][C][C][Branch1][Ring1][C][C][C][C][=C][C][=C][Branch2][=Branch2][Branch2][C][=C][C][=C][Branch2][=Branch1][Branch2][C][=C][C][=C][Branch2][Branch1][=N][C][S][C][Branch1][O][C][=C][C][=C][Branch1][C][C][S][Ring1][=Branch1][=C][C][=Ring1][O][C][=Branch1][C][=O][C][=C][Branch1][O][C][C][Branch1][Ring1][C][C][C][C][C][C][S][C][Branch1][O][C][C][Branch1][Ring1][C][C][C][C][C][C][=C][Ring2][Ring1][Branch1][C][Ring2][Ring1][#Branch2][=O][S][Ring2][Ring2][=Branch2][S][C][Ring2][Ring2][=C][=C][Branch2][Ring1][Ring2][C][=C][C][=C][Branch1][O][C][C][Branch1][Ring1][C][C][C][C][C][C][S][Ring1][=N][C][C][=C][Branch1][C][C][S][C][Ring2][=Branch1][Ring1][=Ring1][=Branch1][S][Ring2][=Branch1][Branch2].[C][C][C][C][C][C][C][=C][C][=C][Branch2][#Branch2][P][C][Branch1][P][C][=C][C][=C][Branch1][#Branch1][C][C][C][C][C][C][C][=C][Ring1][N][C][C][=C][Branch2][Ring1][=Branch2][/C][=C][\C][=Branch1][C][=O][C][=C][C][=C][C][=C][Ring1][=Branch1][C][Ring1][#Branch2][=C][Branch1][Ring1][C][#N][C][#N][S][C][=Ring2][Ring1][Branch1][C][S][C][C][=C][Branch1][O][S][C][=Ring1][Branch1][C][=Ring1][Branch2][Ring2][Ring2][#Branch2][C][S][C][Branch2][Ring1][=Branch2][/C][=C][\C][=Branch1][C][=O][C][=C][C][=C][C][=C][Ring1][=Branch1][C][Ring1][#Branch2][=C][Branch1][Ring1][C][#N][C][#N][=C][C][=Ring2][Ring1][Branch1][C][Ring2][Ring1][O][Branch1][P][C][=C][C][=C][Branch1][#Branch1][C][C][C][C][C][C][C][=C][Ring1][N][C][=C][C][=C][Branch1][#Branch1][C][C][C][C][C][C][C][=C][Ring1][N][C][=C][Ring2][#Branch1][=C],{[$]CCCC(CC)Cc1ccc(-c2c3cc(-c4ccc(-c5sc(-c6ccc[$]s6)c6c5C(=O)c5c(CC(CC)CCCC)sc(CC(CC)CCCC)c5C6=O)s4)sc3c(-c3ccc(CC(CC)CCCC)s3)c3cc[$]sc23)s1}.CCCCCCc1ccc(C2(c3ccc(CCCCCC)cc3)c3cc(/C=C4\C(=O)c5ccccc5C4=C(C#N)C#N)sc3-c3sc4c5c(sc4c32)-c2sc(/C=C3\C(=O)c4ccccc4C3=C(C#N)C#N)cc2C5(c2ccc(CCCCCC)cc2)c2ccc(CCCCCC)cc2)cc1
J71,ITIC,-5.353333333333333,-3.4318181818181825,-5.574146341463415,-3.915,0.8,CB,22.5,_,25.0,9.03,9.05,0.96,14.81,63.63,CCCCCCCCC(CCCCCC)Cn1nc2c(-c3ccc(C)s3)c(F)c(F)c(-c3ccc(-c4cc5c(-c6ccc([Si](CCC)(CCC)CCC)s6)c6sc(C)cc6c(-c6ccc([Si](CCC)(CCC)CCC)s6)c5s4)s3)c2n1.CCCCCCc1ccc(C2(c3ccc(CCCCCC)cc3)c3cc4c(cc3-c3sc5cc(/C=C6\C(=O)c7ccccc7C6=C(C#N)C#N)sc5c32)C(c2ccc(CCCCCC)cc2)(c2ccc(CCCCCC)cc2)c2c-4sc3cc(/C=C4\C(=O)c5ccccc5C4=C(C#N)C#N)sc23)cc1,[C][C][C][C][C][C][C][C][C][Branch1][#Branch1][C][C][C][C][C][C][C][N][N][=C][C][Branch1][O][C][=C][C][=C][Branch1][C][C][S][Ring1][=Branch1][=C][Branch1][C][F][C][Branch1][C][F][=C][Branch2][#Branch1][#Branch1][C][=C][C][=C][Branch2][=Branch1][N][C][=C][C][=C][Branch2][Ring1][Branch2][C][=C][C][=C][Branch1][#C][Si][Branch1][Ring2][C][C][C][Branch1][Ring2][C][C][C][C][C][C][S][Ring1][#C][C][S][C][Branch1][C][C][=C][C][=Ring1][=Branch1][C][Branch2][Ring1][Branch2][C][=C][C][=C][Branch1][#C][Si][Branch1][Ring2][C][C][C][Branch1][Ring2][C][C][C][C][C][C][S][Ring1][#C][=C][Ring2][Ring2][Branch2][S][Ring2][Ring2][O][S][Ring2][Ring2][S][C][Ring2][Branch1][=C][=N][Ring2][Branch1][P].[C][C][C][C][C][C][C][=C][C][=C][Branch2][O][N][C][Branch1][P][C][=C][C][=C][Branch1][#Branch1][C][C][C][C][C][C][C][=C][Ring1][N][C][=C][C][=C][Branch2][Ring2][P][C][=C][Ring1][=Branch1][C][S][C][C][=C][Branch2][Ring1][=Branch2][/C][=C][\C][=Branch1][C][=O][C][=C][C][=C][C][=C][Ring1][=Branch1][C][Ring1][#Branch2][=C][Branch1][Ring1][C][#N][C][#N][S][C][=Ring2][Ring1][Branch1][C][=Ring2][Ring1][Branch2][Ring2][Ring2][O][C][Branch1][P][C][=C][C][=C][Branch1][#Branch1][C][C][C][C][C][C][C][=C][Ring1][N][Branch1][P][C][=C][C][=C][Branch1][#Branch1][C][C][C][C][C][C][C][=C][Ring1][N][C][=C][Ring2][Branch1][#Branch1][S][C][C][=C][Branch2][Ring1][=Branch2][/C][=C][\C][=Branch1][C][=O][C][=C][C][=C][C][=C][Ring1][=Branch1][C][Ring1][#Branch2][=C][Branch1][Ring1][C][#N][C][#N][S][C][Ring2][Ring1][Branch2][=Ring2][Ring1][Branch1][C][=C][Ring2][Branch2][C],{[$]CCCCCCCC(CCCCCC)Cn1nc2c(-c3ccc[$]s3)c(F)c(F)c(-c3ccc(-c4cc5c(-c6ccc([Si](CCC)(CCC)CCC)s6)c6sc[$]cc6c(-c6ccc([Si](CCC)(CCC)CCC)s6)c5s4)s3)c2n1}.CCCCCCc1ccc(C2(c3ccc(CCCCCC)cc3)c3cc4c(cc3-c3sc5cc(/C=C6\C(=O)c7ccccc7C6=C(C#N)C#N)sc5c32)C(c2ccc(CCCCCC)cc2)(c2ccc(CCCCCC)cc2)c2c-4sc3cc(/C=C4\C(=O)c5ccccc5C4=C(C#N)C#N)sc23)cc1
PBDB-T,IT-M,-5.297714285714285,-3.4170000000000003,-5.513571428571429,-3.808,1.0,CB,20.0,DIO,25.0,11.5,11.23,0.961,16.69,70.0,CCCCC(CC)Cc1ccc(-c2c3cc(-c4ccc(-c5sc(-c6ccc(C)s6)c6c5C(=O)c5c(CC(CC)CCCC)sc(CC(CC)CCCC)c5C6=O)s4)sc3c(-c3ccc(CC(CC)CCCC)s3)c3cc(C)sc23)s1.CCCCCCc1ccc(C2(c3ccc(CCCCCC)cc3)c3cc4c(cc3-c3sc5cc(/C=C6\C(=O)c7ccc(C)cc7C6=C(C#N)C#N)sc5c32)C(c2ccc(CCCCCC)cc2)(c2ccc(CCCCCC)cc2)c2c-4sc3cc(/C=C4\C(=O)c5ccc(C)cc5C4=C(C#N)C#N)sc23)cc1,[C][C][C][C][C][Branch1][Ring1][C][C][C][C][=C][C][=C][Branch2][=Branch2][Branch2][C][=C][C][=C][Branch2][=Branch1][Branch2][C][=C][C][=C][Branch2][Branch1][=N][C][S][C][Branch1][O][C][=C][C][=C][Branch1][C][C][S][Ring1][=Branch1][=C][C][=Ring1][O][C][=Branch1][C][=O][C][=C][Branch1][O][C][C][Branch1][Ring1][C][C][C][C][C][C][S][C][Branch1][O][C][C][Branch1][Ring1][C][C][C][C][C][C][=C][Ring2][Ring1][Branch1][C][Ring2][Ring1][#Branch2][=O][S][Ring2][Ring2][=Branch2][S][C][Ring2][Ring2][=C][=C][Branch2][Ring1][Ring2][C][=C][C][=C][Branch1][O][C][C][Branch1][Ring1][C][C][C][C][C][C][S][Ring1][=N][C][C][=C][Branch1][C][C][S][C][Ring2][=Branch1][Ring1][=Ring1][=Branch1][S][Ring2][=Branch1][Branch2].[C][C][C][C][C][C][C][=C][C][=C][Branch2][N][C][C][Branch1][P][C][=C][C][=C][Branch1][#Branch1][C][C][C][C][C][C][C][=C][Ring1][N][C][=C][C][=C][Branch2][Branch1][Ring2][C][=C][Ring1][=Branch1][C][S][C][C][=C][Branch2][Ring1][N][/C][=C][\C][=Branch1][C][=O][C][=C][C][=C][Branch1][C][C][C][=C][Ring1][#Branch1][C][Ring1][O][=C][Branch1][Ring1][C][#N][C][#N][S][C][=Ring2][Ring1][=Branch1][C][=Ring2][Ring1][=Branch2][Ring2][Ring2][N][C][Branch1][P][C][=C][C][=C][Branch1][#Branch1][C][C][C][C][C][C][C][=C][Ring1][N][Branch1][P][C][=C][C][=C][Branch1][#Branch1][C][C][C][C][C][C][C][=C][Ring1][N][C][=C][Ring2][Branch1][Branch2][S][C][C][=C][Branch2][Ring1][N][/C][=C][\C][=Branch1][C][=O][C][=C][C][=C][Branch1][C][C][C][=C][Ring1][#Branch1][C][Ring1][O][=C][Branch1][Ring1][C][#N][C][#N][S][C][Ring2][Ring1][=Branch2][=Ring2][Ring1][=Branch1][C][=C][Ring2][Branch2][Ring2],{[$]CCCC(CC)Cc1ccc(-c2c3cc(-c4ccc(-c5sc(-c6ccc[$]s6)c6c5C(=O)c5c(CC(CC)CCCC)sc(CC(CC)CCCC)c5C6=O)s4)sc3c(-c3ccc(CC(CC)CCCC)s3)c3cc[$]sc23)s1}.CCCCCCc1ccc(C2(c3ccc(CCCCCC)cc3)c3cc4c(cc3-c3sc5cc(/C=C6\C(=O)c7ccc(C)cc7C6=C(C#N)C#N)sc5c32)C(c2ccc(CCCCCC)cc2)(c2ccc(CCCCCC)cc2)c2c-4sc3cc(/C=C4\C(=O)c5ccc(C)cc5C4=C(C#N)C#N)sc23)cc1
PTB7-Th,4TIC,-5.204782608695651,-3.5391891891891896,-5.28,-3.87,0.5,CB,30.0,DIO,25.0,10.43,10.56,0.78,18.8,72.0,CCCCC(CC)COC(=O)c1sc2c(-c3cc4c(-c5ccc(CC(CC)CCCC)s5)c5sc(C)cc5c(-c5ccc(CC(CC)CCCC)s5)c4s3)sc(C)c2c1F.CCCCCCc1ccc(C2(c3ccc(CCCCCC)cc3)c3cc(/C=C4\C(=O)c5ccccc5C4=C(C#N)C#N)sc3-c3sc4c5c(sc4c32)-c2sc(/C=C3\C(=O)c4ccccc4C3=C(C#N)C#N)cc2C5(c2ccc(CCCCCC)cc2)c2ccc(CCCCCC)cc2)cc1,[C][C][C][C][C][Branch1][Ring1][C][C][C][O][C][=Branch1][C][=O][C][S][C][=C][Branch2][=Branch1][Ring2][C][=C][C][=C][Branch2][Ring1][Ring2][C][=C][C][=C][Branch1][O][C][C][Branch1][Ring1][C][C][C][C][C][C][S][Ring1][=N][C][S][C][Branch1][C][C][=C][C][=Ring1][=Branch1][C][Branch2][Ring1][Ring2][C][=C][C][=C][Branch1][O][C][C][Branch1][Ring1][C][C][C][C][C][C][S][Ring1][=N][=C][Ring2][Ring2][Ring2][S][Ring2][Ring2][#Branch1][S][C][Branch1][C][C][=C][Ring2][Ring2][=N][C][=Ring2][Ring2][S][F].[C][C][C][C][C][C][C][=C][C][=C][Branch2][#Branch2][P][C][Branch1][P][C][=C][C][=C][Branch1][#Branch1][C][C][C][C][C][C][C][=C][Ring1][N][C][C][=C][Branch2][Ring1][=Branch2][/C][=C][\C][=Branch1][C][=O][C][=C][C][=C][C][=C][Ring1][=Branch1][C][Ring1][#Branch2][=C][Branch1][Ring1][C][#N][C][#N][S][C][=Ring2][Ring1][Branch1][C][S][C][C][=C][Branch1][O][S][C][=Ring1][Branch1][C][=Ring1][Branch2][Ring2][Ring2][#Branch2][C][S][C][Branch2][Ring1][=Branch2][/C][=C][\C][=Branch1][C][=O][C][=C][C][=C][C][=C][Ring1][=Branch1][C][Ring1][#Branch2][=C][Branch1][Ring1][C][#N][C][#N][=C][C][=Ring2][Ring1][Branch1][C][Ring2][Ring1][O][Branch1][P][C][=C][C][=C][Branch1][#Branch1][C][C][C][C][C][C][C][=C][Ring1][N][C][=C][C][=C][Branch1][#Branch1][C][C][C][C][C][C][C][=C][Ring1][N][C][=C][Ring2][#Branch1][=C],{[$]CCCC(CC)COC(=O)c1sc2c(-c3cc4c(-c5ccc(CC(CC)CCCC)s5)c5sc[$]cc5c(-c5ccc(CC(CC)CCCC)s5)c4s3)sc[$]c2c1F}.CCCCCCc1ccc(C2(c3ccc(CCCCCC)cc3)c3cc(/C=C4\C(=O)c5ccccc5C4=C(C#N)C#N)sc3-c3sc4c5c(sc4c32)-c2sc(/C=C3\C(=O)c4ccccc4C3=C(C#N)C#N)cc2C5(c2ccc(CCCCCC)cc2)c2ccc(CCCCCC)cc2)cc1
PTB7-Th,ITIC,-5.204782608695651,-3.5391891891891896,-5.574146341463415,-3.915,0.8,CB,22.5,_,25.0,7.28,7.18,0.83,15.18,57.0,CCCCC(CC)COC(=O)c1sc2c(-c3cc4c(-c5ccc(CC(CC)CCCC)s5)c5sc(C)cc5c(-c5ccc(CC(CC)CCCC)s5)c4s3)sc(C)c2c1F.CCCCCCc1ccc(C2(c3ccc(CCCCCC)cc3)c3cc4c(cc3-c3sc5cc(/C=C6\C(=O)c7ccccc7C6=C(C#N)C#N)sc5c32)C(c2ccc(CCCCCC)cc2)(c2ccc(CCCCCC)cc2)c2c-4sc3cc(/C=C4\C(=O)c5ccccc5C4=C(C#N)C#N)sc23)cc1,[C][C][C][C][C][Branch1][Ring1][C][C][C][O][C][=Branch1][C][=O][C][S][C][=C][Branch2][=Branch1][Ring2][C][=C][C][=C][Branch2][Ring1][Ring2][C][=C][C][=C][Branch1][O][C][C][Branch1][Ring1][C][C][C][C][C][C][S][Ring1][=N][C][S][C][Branch1][C][C][=C][C][=Ring1][=Branch1][C][Branch2][Ring1][Ring2][C][=C][C][=C][Branch1][O][C][C][Branch1][Ring1][C][C][C][C][C][C][S][Ring1][=N][=C][Ring2][Ring2][Ring2][S][Ring2][Ring2][#Branch1][S][C][Branch1][C][C][=C][Ring2][Ring2][=N][C][=Ring2][Ring2][S][F].[C][C][C][C][C][C][C][=C][C][=C][Branch2][O][N][C][Branch1][P][C][=C][C][=C][Branch1][#Branch1][C][C][C][C][C][C][C][=C][Ring1][N][C][=C][C][=C][Branch2][Ring2][P][C][=C][Ring1][=Branch1][C][S][C][C][=C][Branch2][Ring1][=Branch2][/C][=C][\C][=Branch1][C][=O][C][=C][C][=C][C][=C][Ring1][=Branch1][C][Ring1][#Branch2][=C][Branch1][Ring1][C][#N][C][#N][S][C][=Ring2][Ring1][Branch1][C][=Ring2][Ring1][Branch2][Ring2][Ring2][O][C][Branch1][P][C][=C][C][=C][Branch1][#Branch1][C][C][C][C][C][C][C][=C][Ring1][N][Branch1][P][C][=C][C][=C][Branch1][#Branch1][C][C][C][C][C][C][C][=C][Ring1][N][C][=C][Ring2][Branch1][#Branch1][S][C][C][=C][Branch2][Ring1][=Branch2][/C][=C][\C][=Branch1][C][=O][C][=C][C][=C][C][=C][Ring1][=Branch1][C][Ring1][#Branch2][=C][Branch1][Ring1][C][#N][C][#N][S][C][Ring2][Ring1][Branch2][=Ring2][Ring1][Branch1][C][=C][Ring2][Branch2][C],{[$]CCCC(CC)COC(=O)c1sc2c(-c3cc4c(-c5ccc(CC(CC)CCCC)s5)c5sc[$]cc5c(-c5ccc(CC(CC)CCCC)s5)c4s3)sc[$]c2c1F}.CCCCCCc1ccc(C2(c3ccc(CCCCCC)cc3)c3cc4c(cc3-c3sc5cc(/C=C6\C(=O)c7ccccc7C6=C(C#N)C#N)sc5c32)C(c2ccc(CCCCCC)cc2)(c2ccc(CCCCCC)cc2)c2c-4sc3cc(/C=C4\C(=O)c5ccccc5C4=C(C#N)C#N)sc23)cc1
TBF-BT,ITIC,-5.4,-3.55,-5.574146341463415,-3.915,1.0,CF,16.0,_,110.0,7.03,7.09,0.81,13.89,63.0,CCCCCCCCOc1c(OCCCCCCCC)c(-c2ccc(-c3cc4c(-c5ccc(OCC(CC)CCCC)cc5)c5oc(C)cc5c(-c5ccc(OCC(CC)CCCC)cc5)c4s3)s2)c2nsnc2c1-c1ccc(C)s1.CCCCCCc1ccc(C2(c3ccc(CCCCCC)cc3)c3cc4c(cc3-c3sc5cc(/C=C6\C(=O)c7ccccc7C6=C(C#N)C#N)sc5c32)C(c2ccc(CCCCCC)cc2)(c2ccc(CCCCCC)cc2)c2c-4sc3cc(/C=C4\C(=O)c5ccccc5C4=C(C#N)C#N)sc23)cc1,[C][C][C][C][C][C][C][C][O][C][C][Branch1][#Branch2][O][C][C][C][C][C][C][C][C][=C][Branch2][#Branch1][Ring1][C][=C][C][=C][Branch2][=Branch1][Branch2][C][=C][C][=C][Branch2][Ring1][=Branch1][C][=C][C][=C][Branch1][N][O][C][C][Branch1][Ring1][C][C][C][C][C][C][C][=C][Ring1][#C][C][O][C][Branch1][C][C][=C][C][=Ring1][=Branch1][C][Branch2][Ring1][=Branch1][C][=C][C][=C][Branch1][N][O][C][C][Branch1][Ring1][C][C][C][C][C][C][C][=C][Ring1][#C][=C][Ring2][Ring2][Branch2][S][Ring2][Ring2][O][S][Ring2][Ring2][S][C][=N][S][N][=C][Ring1][Branch1][C][=Ring2][=Branch1][C][C][=C][C][=C][Branch1][C][C][S][Ring1][=Branch1].[C][C][C][C][C][C][C][=C][C][=C][Branch2][O][N][C][Branch1][P][C][=C][C][=C][Branch1][#Branch1][C][C][C][C][C][C][C][=C][Ring1][N][C][=C][C][=C][Branch2][Ring2][P][C][=C][Ring1][=Branch1][C][S][C][C][=C][Branch2][Ring1][=Branch2][/C][=C][\C][=Branch1][C][=O][C][=C][C][=C][C][=C][Ring1][=Branch1][C][Ring1][#Branch2][=C][Branch1][Ring1][C][#N][C][#N][S][C][=Ring2][Ring1][Branch1][C][=Ring2][Ring1][Branch2][Ring2][Ring2][O][C][Branch1][P][C][=C][C][=C][Branch1][#Branch1][C][C][C][C][C][C][C][=C][Ring1][N][Branch1][P][C][=C][C][=C][Branch1][#Branch1][C][C][C][C][C][C][C][=C][Ring1][N][C][=C][Ring2][Branch1][#Branch1][S][C][C][=C][Branch2][Ring1][=Branch2][/C][=C][\C][=Branch1][C][=O][C][=C][C][=C][C][=C][Ring1][=Branch1][C][Ring1][#Branch2][=C][Branch1][Ring1][C][#N][C][#N][S][C][Ring2][Ring1][Branch2][=Ring2][Ring1][Branch1][C][=C][Ring2][Branch2][C],{[$]CCCCCCCOc1c(OCCCCCCCC)c(-c2ccc(-c3cc4c(-c5ccc(OCC(CC)CCCC)cc5)c5oc[$]cc5c(-c5ccc(OCC(CC)CCCC)cc5)c4s3)s2)c2nsnc2c1-c1ccc[$]s1}.CCCCCCc1ccc(C2(c3ccc(CCCCCC)cc3)c3cc4c(cc3-c3sc5cc(/C=C6\C(=O)c7ccccc7C6=C(C#N)C#N)sc5c32)C(c2ccc(CCCCCC)cc2)(c2ccc(CCCCCC)cc2)c2c-4sc3cc(/C=C4\C(=O)c5ccccc5C4=C(C#N)C#N)sc23)cc1
PBT,CzC6C8,-5.43,-3.65,-5.79,-3.79,0.333,CB,25.0,_,130.0,3.3,3.34,0.99,8.24,41.0,CCCCCCCCCCCCSOc1c(OSCCCCCCCCCCCC)c(-c2ccc(-c3cc4c(-c5ccc(SCC(CC)CCCC)cc5)c5sc(C)cc5c(-c5ccc(SCC(CC)CCCC)cc5)c4s3)s2)c2nsnc2c1-c1ccc(C)s1.CCCCCCCCC(CCCCCC)Cn1c2cc(-c3ccc(/C=C4\SC(=S)N(CC)C4=O)c4nsnc34)ccc2c2ccc(-c3ccc(/C=C4\SC(=S)N(CC)C4=O)c4nsnc34)cc21,[C][C][C][C][C][C][C][C][C][C][C][C][S][O][C][C][Branch1][#C][O][S][C][C][C][C][C][C][C][C][C][C][C][C][=C][Branch2][#Branch1][Ring1][C][=C][C][=C][Branch2][=Branch1][Branch2][C][=C][C][=C][Branch2][Ring1][=Branch1][C][=C][C][=C][Branch1][N][S][C][C][Branch1][Ring1][C][C][C][C][C][C][C][=C][Ring1][#C][C][S][C][Branch1][C][C][=C][C][=Ring1][=Branch1][C][Branch2][Ring1][=Branch1][C][=C][C][=C][Branch1][N][S][C][C][Branch1][Ring1][C][C][C][C][C][C][C][=C][Ring1][#C][=C][Ring2][Ring2][Branch2][S][Ring2][Ring2][O][S][Ring2][Ring2][S][C][=N][S][N][=C][Ring1][Branch1][C][=Ring2][=Branch1][#Branch1][C][=C][C][=C][Branch1][C][C][S][Ring1][=Branch1].[C][C][C][C][C][C][C][C][C][Branch1][#Branch1][C][C][C][C][C][C][C][N][C][=C][C][Branch2][Ring1][P][C][=C][C][=C][Branch1][P][/C][=C][\S][C][=Branch1][C][=S][N][Branch1][Ring1][C][C][C][Ring1][Branch2][=O][C][=N][S][N][=C][Ring2][Ring1][Ring1][Ring1][Branch1][=C][C][=C][Ring2][Ring1][=Branch2][C][=C][C][=C][Branch2][Ring1][P][C][=C][C][=C][Branch1][P][/C][=C][\S][C][=Branch1][C][=S][N][Branch1][Ring1][C][C][C][Ring1][Branch2][=O][C][=N][S][N][=C][Ring2][Ring1][Ring1][Ring1][Branch1][C][=C][Ring2][Ring1][=Branch2][Ring2][Branch1][Ring1],{[$]CCCCCCCCCCCSOc1c(OSCCCCCCCCCCCC)c(-c2ccc(-c3cc4c(-c5ccc(SCC(CC)CCCC)cc5)c5sc[$]cc5c(-c5ccc(SCC(CC)CCCC)cc5)c4s3)s2)c2nsnc2c1-c1ccc[$]s1}.CCCCCCCCC(CCCCCC)Cn1c2cc(-c3ccc(/C=C4\SC(=S)N(CC)C4=O)c4nsnc34)ccc2c2ccc(-c3ccc(/C=C4\SC(=S)N(CC)C4=O)c4nsnc34)cc21