Donor,Acceptor,HOMO_D_eV,LUMO_D_eV,HOMO_A_eV,LUMO_A_eV,D_A_ratio_m_m,solvent,total_solids_conc_mg_mL,solvent_additive,annealing_temperature,PCE_percent,calc_PCE_percent,Voc_V,Jsc_mA_cm_pow_neg2,FF_percent,DA_SMILES,DA_SELFIES,DA_BigSMILES
PTB-EDOT,ITIC-Th,-5.33,-3.63,-5.673333333333334,-3.908888888888889,0.667,MeTHF,16.0,_,100.0,8.59,8.59,0.84,15.37,66.5,CCCCC(CC)COC(=O)c1sc2c(-c3cc4c(-c5sc(CC(CC)CCCC)c6c5OCCO6)c5sc(C)cc5c(-c5sc(CC(CC)CCCC)c6c5OCCO6)c4s3)sc(C)c2c1F.CCCCCCc1ccc(C2(c3ccc(CCCCCC)s3)c3cc4c(cc3-c3sc5cc(/C=C6\C(=O)c7ccccc7C6=C(C#N)C#N)sc5c32)C(c2ccc(CCCCCC)s2)(c2ccc(CCCCCC)s2)c2c-4sc3cc(/C=C4\C(=O)c5ccccc5C4=C(C#N)C#N)sc23)s1,[C][C][C][C][C][Branch1][Ring1][C][C][C][O][C][=Branch1][C][=O][C][S][C][=C][Branch2][=Branch1][S][C][=C][C][=C][Branch2][Ring1][#Branch2][C][S][C][Branch1][O][C][C][Branch1][Ring1][C][C][C][C][C][C][=C][C][=Ring1][=N][O][C][C][O][Ring1][=Branch1][C][S][C][Branch1][C][C][=C][C][=Ring1][=Branch1][C][Branch2][Ring1][#Branch2][C][S][C][Branch1][O][C][C][Branch1][Ring1][C][C][C][C][C][C][=C][C][=Ring1][=N][O][C][C][O][Ring1][=Branch1][=C][Ring2][Ring2][N][S][Ring2][Ring2][#C][S][C][Branch1][C][C][=C][Ring2][Branch1][Branch1][C][=Ring2][Branch1][Branch2][F].[C][C][C][C][C][C][C][=C][C][=C][Branch2][O][=Branch2][C][Branch1][S][C][=C][C][=C][Branch1][#Branch1][C][C][C][C][C][C][S][Ring1][O][C][=C][C][=C][Branch2][Ring2][P][C][=C][Ring1][=Branch1][C][S][C][C][=C][Branch2][Ring1][=Branch2][/C][=C][\C][=Branch1][C][=O][C][=C][C][=C][C][=C][Ring1][=Branch1][C][Ring1][#Branch2][=C][Branch1][Ring1][C][#N][C][#N][S][C][=Ring2][Ring1][Branch1][C][=Ring2][Ring1][Branch2][Ring2][Ring2][#Branch2][C][Branch1][S][C][=C][C][=C][Branch1][#Branch1][C][C][C][C][C][C][S][Ring1][O][Branch1][S][C][=C][C][=C][Branch1][#Branch1][C][C][C][C][C][C][S][Ring1][O][C][=C][Ring2][Branch1][Branch1][S][C][C][=C][Branch2][Ring1][=Branch2][/C][=C][\C][=Branch1][C][=O][C][=C][C][=C][C][=C][Ring1][=Branch1][C][Ring1][#Branch2][=C][Branch1][Ring1][C][#N][C][#N][S][C][Ring2][Ring1][Branch2][=Ring2][Ring1][Branch1][S][Ring2][#Branch1][=C],{[$]CCCC(CC)COC(=O)c1sc2c(-c3cc4c(-c5sc(CC(CC)CCCC)c6c5OCCO6)c5sc[$]cc5c(-c5sc(CC(CC)CCCC)c6c5OCCO6)c4s3)sc[$]c2c1F}.CCCCCCc1ccc(C2(c3ccc(CCCCCC)s3)c3cc4c(cc3-c3sc5cc(/C=C6\C(=O)c7ccccc7C6=C(C#N)C#N)sc5c32)C(c2ccc(CCCCCC)s2)(c2ccc(CCCCCC)s2)c2c-4sc3cc(/C=C4\C(=O)c5ccccc5C4=C(C#N)C#N)sc23)s1
PTB-EDOTS,ITIC-Th,-5.38,-3.69,-5.673333333333334,-3.908888888888889,0.667,MeTHF,16.0,_,100.0,10.18,10.18,0.88,16.25,71.2,CCCCC(CC)COC(=O)c1sc2c(-c3cc4c(-c5sc(SCC(CC)CCCC)c6c5OCCO6)c5sc(C)cc5c(-c5sc(SCC(CC)CCCC)c6c5OCCO6)c4s3)sc(C)c2c1F.CCCCCCc1ccc(C2(c3ccc(CCCCCC)s3)c3cc4c(cc3-c3sc5cc(/C=C6\C(=O)c7ccccc7C6=C(C#N)C#N)sc5c32)C(c2ccc(CCCCCC)s2)(c2ccc(CCCCCC)s2)c2c-4sc3cc(/C=C4\C(=O)c5ccccc5C4=C(C#N)C#N)sc23)s1,[C][C][C][C][C][Branch1][Ring1][C][C][C][O][C][=Branch1][C][=O][C][S][C][=C][Branch2][#Branch1][C][C][=C][C][=C][Branch2][Ring1][O][C][S][C][Branch1][N][S][C][C][Branch1][Ring1][C][C][C][C][C][C][=C][C][=Ring1][=C][O][C][C][O][Ring1][=Branch1][C][S][C][Branch1][C][C][=C][C][=Ring1][=Branch1][C][Branch2][Ring1][O][C][S][C][Branch1][N][S][C][C][Branch1][Ring1][C][C][C][C][C][C][=C][C][=Ring1][=C][O][C][C][O][Ring1][=Branch1][=C][Ring2][Ring2][=C][S][Ring2][Ring2][P][S][C][Branch1][C][C][=C][Ring2][Branch1][#Branch1][C][=Ring2][Branch1][#Branch2][F].[C][C][C][C][C][C][C][=C][C][=C][Branch2][O][=Branch2][C][Branch1][S][C][=C][C][=C][Branch1][#Branch1][C][C][C][C][C][C][S][Ring1][O][C][=C][C][=C][Branch2][Ring2][P][C][=C][Ring1][=Branch1][C][S][C][C][=C][Branch2][Ring1][=Branch2][/C][=C][\C][=Branch1][C][=O][C][=C][C][=C][C][=C][Ring1][=Branch1][C][Ring1][#Branch2][=C][Branch1][Ring1][C][#N][C][#N][S][C][=Ring2][Ring1][Branch1][C][=Ring2][Ring1][Branch2][Ring2][Ring2][#Branch2][C][Branch1][S][C][=C][C][=C][Branch1][#Branch1][C][C][C][C][C][C][S][Ring1][O][Branch1][S][C][=C][C][=C][Branch1][#Branch1][C][C][C][C][C][C][S][Ring1][O][C][=C][Ring2][Branch1][Branch1][S][C][C][=C][Branch2][Ring1][=Branch2][/C][=C][\C][=Branch1][C][=O][C][=C][C][=C][C][=C][Ring1][=Branch1][C][Ring1][#Branch2][=C][Branch1][Ring1][C][#N][C][#N][S][C][Ring2][Ring1][Branch2][=Ring2][Ring1][Branch1][S][Ring2][#Branch1][=C],{[$]CCCC(CC)COC(=O)c1sc2c(-c3cc4c(-c5sc(SCC(CC)CCCC)c6c5OCCO6)c5sc[$]cc5c(-c5sc(SCC(CC)CCCC)c6c5OCCO6)c4s3)sc[$]c2c1F}.CCCCCCc1ccc(C2(c3ccc(CCCCCC)s3)c3cc4c(cc3-c3sc5cc(/C=C6\C(=O)c7ccccc7C6=C(C#N)C#N)sc5c32)C(c2ccc(CCCCCC)s2)(c2ccc(CCCCCC)s2)c2c-4sc3cc(/C=C4\C(=O)c5ccccc5C4=C(C#N)C#N)sc23)s1
POPB,IT-4F,-5.38,-3.57,-5.66875,-4.060416666666667,0.667,CB,20.0,DIO,25.0,6.2,6.19,0.72,16.8,51.2,CCCCCCCCC(CCCCCC)COc1ccc(-c2c3cc(-c4ccc(-c5sc(-c6ccc(C)s6)c6c5C(=O)c5c(CC(CC)CCCC)sc(CC(CC)CCCC)c5C6=O)s4)sc3c(-c3ccc(OCC(CCCCCC)CCCCCCCC)cc3)c3cc(C)sc23)cc1.CCCCCCc1ccc(C2(c3ccc(CCCCCC)cc3)c3cc4c(cc3-c3sc5cc(/C=C6\C(=O)c7cc(F)c(F)cc7C6=C(C#N)C#N)sc5c32)C(c2ccc(CCCCCC)cc2)(c2ccc(CCCCCC)cc2)c2c-4sc3cc(/C=C4\C(=O)c5cc(F)c(F)cc5C4=C(C#N)C#N)sc23)cc1,[C][C][C][C][C][C][C][C][C][Branch1][#Branch1][C][C][C][C][C][C][C][O][C][=C][C][=C][Branch2][#Branch2][Ring2][C][=C][C][=C][Branch2][=Branch1][Branch2][C][=C][C][=C][Branch2][Branch1][=N][C][S][C][Branch1][O][C][=C][C][=C][Branch1][C][C][S][Ring1][=Branch1][=C][C][=Ring1][O][C][=Branch1][C][=O][C][=C][Branch1][O][C][C][Branch1][Ring1][C][C][C][C][C][C][S][C][Branch1][O][C][C][Branch1][Ring1][C][C][C][C][C][C][=C][Ring2][Ring1][Branch1][C][Ring2][Ring1][#Branch2][=O][S][Ring2][Ring2][=Branch2][S][C][Ring2][Ring2][=C][=C][Branch2][Ring1][S][C][=C][C][=C][Branch2][Ring1][Ring2][O][C][C][Branch1][#Branch1][C][C][C][C][C][C][C][C][C][C][C][C][C][C][C][=C][Ring2][Ring1][#Branch1][C][C][=C][Branch1][C][C][S][C][Ring2][=Branch1][=N][=Ring1][=Branch1][C][=C][Ring2][#Branch1][Ring1].[C][C][C][C][C][C][C][=C][C][=C][Branch2][N][Branch2][C][Branch1][P][C][=C][C][=C][Branch1][#Branch1][C][C][C][C][C][C][C][=C][Ring1][N][C][=C][C][=C][Branch2][Branch1][#Branch1][C][=C][Ring1][=Branch1][C][S][C][C][=C][Branch2][Ring1][#C][/C][=C][\C][=Branch1][C][=O][C][=C][C][Branch1][C][F][=C][Branch1][C][F][C][=C][Ring1][Branch2][C][Ring1][N][=C][Branch1][Ring1][C][#N][C][#N][S][C][=Ring2][Ring1][#Branch1][C][=Ring2][Ring1][#Branch2][Ring2][Ring2][=N][C][Branch1][P][C][=C][C][=C][Branch1][#Branch1][C][C][C][C][C][C][C][=C][Ring1][N][Branch1][P][C][=C][C][=C][Branch1][#Branch1][C][C][C][C][C][C][C][=C][Ring1][N][C][=C][Ring2][Branch1][=Branch2][S][C][C][=C][Branch2][Ring1][#C][/C][=C][\C][=Branch1][C][=O][C][=C][C][Branch1][C][F][=C][Branch1][C][F][C][=C][Ring1][Branch2][C][Ring1][N][=C][Branch1][Ring1][C][#N][C][#N][S][C][Ring2][Ring1][#Branch2][=Ring2][Ring1][#Branch1][C][=C][Ring2][Branch2][=Branch1],{[$]CCCCCCCC(CCCCCC)COc1ccc(-c2c3cc(-c4ccc(-c5sc(-c6ccc[$]s6)c6c5C(=O)c5c(CC(CC)CCCC)sc(CC(CC)CCCC)c5C6=O)s4)sc3c(-c3ccc(OCC(CCCCCC)CCCCCCCC)cc3)c3cc[$]sc23)cc1}.CCCCCCc1ccc(C2(c3ccc(CCCCCC)cc3)c3cc4c(cc3-c3sc5cc(/C=C6\C(=O)c7cc(F)c(F)cc7C6=C(C#N)C#N)sc5c32)C(c2ccc(CCCCCC)cc2)(c2ccc(CCCCCC)cc2)c2c-4sc3cc(/C=C4\C(=O)c5cc(F)c(F)cc5C4=C(C#N)C#N)sc23)cc1
P3HT,BIBT-NI,-5.057777777777777,-2.989444444444445,-5.62,-3.65,0.833,o-DCB,28.0,_,110.0,2.1,2.09,0.77,6.14,44.2,CCCCCCc1cc(-c2sc(-c3sc(-c4sc(C)cc4CCCCCC)cc3CCCCCC)cc2CCCCCC)sc1C.CCCCC(CC)CN1C(=O)c2c(c(-c3ccc(-c4ccc5c6c(cccc46)C(=O)N(CC(CC)CCCC)C5=O)s3)c3nsnc3c2-c2ccc(-c3ccc4c5c(cccc35)C(=O)N(CC(CC)CCCC)C4=O)s2)C1=O,[C][C][C][C][C][C][C][C][=C][Branch2][Ring2][P][C][S][C][Branch2][Ring1][S][C][S][C][Branch1][P][C][S][C][Branch1][C][C][=C][C][=Ring1][=Branch1][C][C][C][C][C][C][=C][C][=Ring1][P][C][C][C][C][C][C][=C][C][=Ring2][Ring1][N][C][C][C][C][C][C][S][C][=Ring2][Ring2][#Branch1][C].[C][C][C][C][C][Branch1][Ring1][C][C][C][N][C][=Branch1][C][=O][C][C][=Branch2][=Branch2][C][=C][Branch2][Branch1][C][C][=C][C][=C][Branch2][Ring2][#Branch1][C][=C][C][=C][C][=C][Branch1][=Branch2][C][=C][C][=C][Ring1][#Branch2][Ring1][=Branch1][C][=Branch1][C][=O][N][Branch1][O][C][C][Branch1][Ring1][C][C][C][C][C][C][C][Ring2][Ring1][Ring1][=O][S][Ring2][Ring1][N][C][=N][S][N][=C][Ring1][Branch1][C][=Ring2][Ring2][Branch1][C][=C][C][=C][Branch2][Ring2][#Branch1][C][=C][C][=C][C][=C][Branch1][=Branch2][C][=C][C][=C][Ring1][#Branch2][Ring1][=Branch1][C][=Branch1][C][=O][N][Branch1][O][C][C][Branch1][Ring1][C][C][C][C][C][C][C][Ring2][Ring1][Ring1][=O][S][Ring2][Ring1][N][C][Ring2][=Branch1][Branch1][=O],{[$]CCCCCc1cc(-c2sc(-c3sc(-c4sc[$]cc4CCCCCC)cc3CCCCCC)cc2CCCCCC)sc1C}.CCCCC(CC)CN1C(=O)c2c(c(-c3ccc(-c4ccc5c6c(cccc46)C(=O)N(CC(CC)CCCC)C5=O)s3)c3nsnc3c2-c2ccc(-c3ccc4c5c(cccc35)C(=O)N(CC(CC)CCCC)C4=O)s2)C1=O
PBDS-T,ITIC,-5.349999999999999,-3.67,-5.574146341463415,-3.915,1.2,CB,20.0,DIO,25.0,10.72,10.72,0.98,18.23,60.0,CCCCC(CC)CC1SC(CC(CC)CCCC)C2C(=O)c3c(C4CCC(c5cc6c(-c7ccc([Si](CCC)(CCC)CCC)s7)c7sc(C)cc7c(-c7ccc([Si](CCC)(CCC)CCC)s7)c6s5)S4)sc(-c4ccc(C)s4)c3C(=O)C12.CCCCCCc1ccc(C2(c3ccc(CCCCCC)cc3)c3cc4c(cc3-c3sc5cc(/C=C6\C(=O)c7ccccc7C6=C(C#N)C#N)sc5c32)C(c2ccc(CCCCCC)cc2)(c2ccc(CCCCCC)cc2)c2c-4sc3cc(/C=C4\C(=O)c5ccccc5C4=C(C#N)C#N)sc23)cc1,[C][C][C][C][C][Branch1][Ring1][C][C][C][C][S][C][Branch1][O][C][C][Branch1][Ring1][C][C][C][C][C][C][C][C][=Branch1][C][=O][C][=C][Branch2][#Branch1][#Branch1][C][C][C][C][Branch2][=Branch1][N][C][=C][C][=C][Branch2][Ring1][Branch2][C][=C][C][=C][Branch1][#C][Si][Branch1][Ring2][C][C][C][Branch1][Ring2][C][C][C][C][C][C][S][Ring1][#C][C][S][C][Branch1][C][C][=C][C][=Ring1][=Branch1][C][Branch2][Ring1][Branch2][C][=C][C][=C][Branch1][#C][Si][Branch1][Ring2][C][C][C][Branch1][Ring2][C][C][C][C][C][C][S][Ring1][#C][=C][Ring2][Ring2][Branch2][S][Ring2][Ring2][O][S][Ring2][Ring2][S][S][C][Branch1][O][C][=C][C][=C][Branch1][C][C][S][Ring1][=Branch1][=C][Ring2][Branch1][O][C][=Branch1][C][=O][C][Ring2][=Branch1][N][Ring2][Branch1][P].[C][C][C][C][C][C][C][=C][C][=C][Branch2][O][N][C][Branch1][P][C][=C][C][=C][Branch1][#Branch1][C][C][C][C][C][C][C][=C][Ring1][N][C][=C][C][=C][Branch2][Ring2][P][C][=C][Ring1][=Branch1][C][S][C][C][=C][Branch2][Ring1][=Branch2][/C][=C][\C][=Branch1][C][=O][C][=C][C][=C][C][=C][Ring1][=Branch1][C][Ring1][#Branch2][=C][Branch1][Ring1][C][#N][C][#N][S][C][=Ring2][Ring1][Branch1][C][=Ring2][Ring1][Branch2][Ring2][Ring2][O][C][Branch1][P][C][=C][C][=C][Branch1][#Branch1][C][C][C][C][C][C][C][=C][Ring1][N][Branch1][P][C][=C][C][=C][Branch1][#Branch1][C][C][C][C][C][C][C][=C][Ring1][N][C][=C][Ring2][Branch1][#Branch1][S][C][C][=C][Branch2][Ring1][=Branch2][/C][=C][\C][=Branch1][C][=O][C][=C][C][=C][C][=C][Ring1][=Branch1][C][Ring1][#Branch2][=C][Branch1][Ring1][C][#N][C][#N][S][C][Ring2][Ring1][Branch2][=Ring2][Ring1][Branch1][C][=C][Ring2][Branch2][C],{[$]CCCC(CC)CC1SC(CC(CC)CCCC)C2C(=O)c3c(C4CCC(c5cc6c(-c7ccc([Si](CCC)(CCC)CCC)s7)c7sc[$]cc7c(-c7ccc([Si](CCC)(CCC)CCC)s7)c6s5)S4)sc(-c4ccc[$]s4)c3C(=O)C12}.CCCCCCc1ccc(C2(c3ccc(CCCCCC)cc3)c3cc4c(cc3-c3sc5cc(/C=C6\C(=O)c7ccccc7C6=C(C#N)C#N)sc5c32)C(c2ccc(CCCCCC)cc2)(c2ccc(CCCCCC)cc2)c2c-4sc3cc(/C=C4\C(=O)c5ccccc5C4=C(C#N)C#N)sc23)cc1
PBDS-T,ITIC-F,-5.349999999999999,-3.67,-5.619999999999999,-4.02,1.0,CB,20.0,DIO,25.0,11.19,11.19,0.9,18.64,66.7,CCCCC(CC)CC1SC(CC(CC)CCCC)C2C(=O)c3c(C4CCC(c5cc6c(-c7ccc([Si](CCC)(CCC)CCC)s7)c7sc(C)cc7c(-c7ccc([Si](CCC)(CCC)CCC)s7)c6s5)S4)sc(-c4ccc(C)s4)c3C(=O)C12.CCCCCCc1ccc(C2(c3ccc(CCCCCC)cc3)c3cc4c(cc3-c3sc5cc(/C=C6\C(=O)c7cc(F)c(F)cc7C6=C(C#N)C#N)sc5c32)C(c2ccc(CCCCCC)cc2)(c2ccc(CCCCCC)cc2)c2c-4sc3cc(/C=C4\C(=O)c5cc(F)c(F)cc5C4=C(C#N)C#N)sc23)cc1,[C][C][C][C][C][Branch1][Ring1][C][C][C][C][S][C][Branch1][O][C][C][Branch1][Ring1][C][C][C][C][C][C][C][C][=Branch1][C][=O][C][=C][Branch2][#Branch1][#Branch1][C][C][C][C][Branch2][=Branch1][N][C][=C][C][=C][Branch2][Ring1][Branch2][C][=C][C][=C][Branch1][#C][Si][Branch1][Ring2][C][C][C][Branch1][Ring2][C][C][C][C][C][C][S][Ring1][#C][C][S][C][Branch1][C][C][=C][C][=Ring1][=Branch1][C][Branch2][Ring1][Branch2][C][=C][C][=C][Branch1][#C][Si][Branch1][Ring2][C][C][C][Branch1][Ring2][C][C][C][C][C][C][S][Ring1][#C][=C][Ring2][Ring2][Branch2][S][Ring2][Ring2][O][S][Ring2][Ring2][S][S][C][Branch1][O][C][=C][C][=C][Branch1][C][C][S][Ring1][=Branch1][=C][Ring2][Branch1][O][C][=Branch1][C][=O][C][Ring2][=Branch1][N][Ring2][Branch1][P].[C][C][C][C][C][C][C][=C][C][=C][Branch2][N][Branch2][C][Branch1][P][C][=C][C][=C][Branch1][#Branch1][C][C][C][C][C][C][C][=C][Ring1][N][C][=C][C][=C][Branch2][Branch1][#Branch1][C][=C][Ring1][=Branch1][C][S][C][C][=C][Branch2][Ring1][#C][/C][=C][\C][=Branch1][C][=O][C][=C][C][Branch1][C][F][=C][Branch1][C][F][C][=C][Ring1][Branch2][C][Ring1][N][=C][Branch1][Ring1][C][#N][C][#N][S][C][=Ring2][Ring1][#Branch1][C][=Ring2][Ring1][#Branch2][Ring2][Ring2][=N][C][Branch1][P][C][=C][C][=C][Branch1][#Branch1][C][C][C][C][C][C][C][=C][Ring1][N][Branch1][P][C][=C][C][=C][Branch1][#Branch1][C][C][C][C][C][C][C][=C][Ring1][N][C][=C][Ring2][Branch1][=Branch2][S][C][C][=C][Branch2][Ring1][#C][/C][=C][\C][=Branch1][C][=O][C][=C][C][Branch1][C][F][=C][Branch1][C][F][C][=C][Ring1][Branch2][C][Ring1][N][=C][Branch1][Ring1][C][#N][C][#N][S][C][Ring2][Ring1][#Branch2][=Ring2][Ring1][#Branch1][C][=C][Ring2][Branch2][=Branch1],{[$]CCCC(CC)CC1SC(CC(CC)CCCC)C2C(=O)c3c(C4CCC(c5cc6c(-c7ccc([Si](CCC)(CCC)CCC)s7)c7sc[$]cc7c(-c7ccc([Si](CCC)(CCC)CCC)s7)c6s5)S4)sc(-c4ccc[$]s4)c3C(=O)C12}.CCCCCCc1ccc(C2(c3ccc(CCCCCC)cc3)c3cc4c(cc3-c3sc5cc(/C=C6\C(=O)c7cc(F)c(F)cc7C6=C(C#N)C#N)sc5c32)C(c2ccc(CCCCCC)cc2)(c2ccc(CCCCCC)cc2)c2c-4sc3cc(/C=C4\C(=O)c5cc(F)c(F)cc5C4=C(C#N)C#N)sc23)cc1
PBDS-T,ITIC-Th1,-5.349999999999999,-3.67,-5.720000000000001,-4.065,1.0,CB,20.0,DIO,25.0,12.04,12.04,0.88,19.55,70.0,CCCCC(CC)CC1SC(CC(CC)CCCC)C2C(=O)c3c(C4CCC(c5cc6c(-c7ccc([Si](CCC)(CCC)CCC)s7)c7sc(C)cc7c(-c7ccc([Si](CCC)(CCC)CCC)s7)c6s5)S4)sc(-c4ccc(C)s4)c3C(=O)C12.CCCCCCc1ccc(C2(c3ccc(CCCCCC)s3)c3cc4c(cc3-c3sc5cc(C=C6C(=O)c7cc(F)ccc7C6=C(C#N)C#N)sc5c32)C(c2ccc(CCCCCC)s2)(c2ccc(CCCCCC)s2)c2c-4sc3cc(C=C4C(=O)c5cc(F)ccc5C4=C(C#N)C#N)sc23)s1,[C][C][C][C][C][Branch1][Ring1][C][C][C][C][S][C][Branch1][O][C][C][Branch1][Ring1][C][C][C][C][C][C][C][C][=Branch1][C][=O][C][=C][Branch2][#Branch1][#Branch1][C][C][C][C][Branch2][=Branch1][N][C][=C][C][=C][Branch2][Ring1][Branch2][C][=C][C][=C][Branch1][#C][Si][Branch1][Ring2][C][C][C][Branch1][Ring2][C][C][C][C][C][C][S][Ring1][#C][C][S][C][Branch1][C][C][=C][C][=Ring1][=Branch1][C][Branch2][Ring1][Branch2][C][=C][C][=C][Branch1][#C][Si][Branch1][Ring2][C][C][C][Branch1][Ring2][C][C][C][C][C][C][S][Ring1][#C][=C][Ring2][Ring2][Branch2][S][Ring2][Ring2][O][S][Ring2][Ring2][S][S][C][Branch1][O][C][=C][C][=C][Branch1][C][C][S][Ring1][=Branch1][=C][Ring2][Branch1][O][C][=Branch1][C][=O][C][Ring2][=Branch1][N][Ring2][Branch1][P].[C][C][C][C][C][C][C][=C][C][=C][Branch2][O][#C][C][Branch1][S][C][=C][C][=C][Branch1][#Branch1][C][C][C][C][C][C][S][Ring1][O][C][=C][C][=C][Branch2][Branch1][Ring2][C][=C][Ring1][=Branch1][C][S][C][C][=C][Branch2][Ring1][N][C][=C][C][=Branch1][C][=O][C][=C][C][Branch1][C][F][=C][C][=C][Ring1][#Branch1][C][Ring1][O][=C][Branch1][Ring1][C][#N][C][#N][S][C][=Ring2][Ring1][=Branch1][C][=Ring2][Ring1][=Branch2][Ring2][Ring2][O][C][Branch1][S][C][=C][C][=C][Branch1][#Branch1][C][C][C][C][C][C][S][Ring1][O][Branch1][S][C][=C][C][=C][Branch1][#Branch1][C][C][C][C][C][C][S][Ring1][O][C][=C][Ring2][Branch1][=Branch1][S][C][C][=C][Branch2][Ring1][N][C][=C][C][=Branch1][C][=O][C][=C][C][Branch1][C][F][=C][C][=C][Ring1][#Branch1][C][Ring1][O][=C][Branch1][Ring1][C][#N][C][#N][S][C][Ring2][Ring1][=Branch2][=Ring2][Ring1][=Branch1][S][Ring2][#Branch1][S],{[$]CCCC(CC)CC1SC(CC(CC)CCCC)C2C(=O)c3c(C4CCC(c5cc6c(-c7ccc([Si](CCC)(CCC)CCC)s7)c7sc[$]cc7c(-c7ccc([Si](CCC)(CCC)CCC)s7)c6s5)S4)sc(-c4ccc[$]s4)c3C(=O)C12}.CCCCCCc1ccc(C2(c3ccc(CCCCCC)s3)c3cc4c(cc3-c3sc5cc(C=C6C(=O)c7cc(F)ccc7C6=C(C#N)C#N)sc5c32)C(c2ccc(CCCCCC)s2)(c2ccc(CCCCCC)s2)c2c-4sc3cc(C=C4C(=O)c5cc(F)ccc5C4=C(C#N)C#N)sc23)s1
J71,ITDM,-5.353333333333333,-3.4318181818181825,-5.58,-3.82,1.0,CF,16.0,_,100.0,12.05,12.05,1.015,16.74,70.9,CCCCCCCCC(CCCCCC)Cn1nc2c(-c3ccc(C)s3)c(F)c(F)c(-c3ccc(-c4cc5c(-c6ccc([Si](CCC)(CCC)CCC)s6)c6sc(C)cc6c(-c6ccc([Si](CCC)(CCC)CCC)s6)c5s4)s3)c2n1.CCCCCCc1ccc(C2(c3ccc(CCCCCC)cc3)C3=C(SC4C=C(C=C5C(=O)c6cc(C)c(C)cc6C5=C(C#N)C#N)SC34)c3cc4c(cc32)-c2sc3cc(C=C5C(=O)c6cc(C)c(C)cc6C5=C(C#N)C#N)sc3c2C4(c2ccc(CCCCCC)cc2)c2ccc(CCCCCC)cc2)cc1,[C][C][C][C][C][C][C][C][C][Branch1][#Branch1][C][C][C][C][C][C][C][N][N][=C][C][Branch1][O][C][=C][C][=C][Branch1][C][C][S][Ring1][=Branch1][=C][Branch1][C][F][C][Branch1][C][F][=C][Branch2][#Branch1][#Branch1][C][=C][C][=C][Branch2][=Branch1][N][C][=C][C][=C][Branch2][Ring1][Branch2][C][=C][C][=C][Branch1][#C][Si][Branch1][Ring2][C][C][C][Branch1][Ring2][C][C][C][C][C][C][S][Ring1][#C][C][S][C][Branch1][C][C][=C][C][=Ring1][=Branch1][C][Branch2][Ring1][Branch2][C][=C][C][=C][Branch1][#C][Si][Branch1][Ring2][C][C][C][Branch1][Ring2][C][C][C][C][C][C][S][Ring1][#C][=C][Ring2][Ring2][Branch2][S][Ring2][Ring2][O][S][Ring2][Ring2][S][C][Ring2][Branch1][=C][=N][Ring2][Branch1][P].[C][C][C][C][C][C][C][=C][C][=C][Branch2][N][Branch2][C][Branch1][P][C][=C][C][=C][Branch1][#Branch1][C][C][C][C][C][C][C][=C][Ring1][N][C][=C][Branch2][Ring2][=C][S][C][C][=C][Branch2][Ring1][#C][C][=C][C][=Branch1][C][=O][C][=C][C][Branch1][C][C][=C][Branch1][C][C][C][=C][Ring1][Branch2][C][Ring1][N][=C][Branch1][Ring1][C][#N][C][#N][S][C][Ring2][Ring1][#Branch2][Ring2][Ring1][#Branch1][C][=C][C][=C][Branch1][Branch2][C][=C][Ring1][=Branch1][Ring2][Ring2][=N][C][S][C][C][=C][Branch2][Ring1][#C][C][=C][C][=Branch1][C][=O][C][=C][C][Branch1][C][C][=C][Branch1][C][C][C][=C][Ring1][Branch2][C][Ring1][N][=C][Branch1][Ring1][C][#N][C][#N][S][C][=Ring2][Ring1][#Branch1][C][=Ring2][Ring1][#Branch2][C][Ring2][Ring1][#C][Branch1][P][C][=C][C][=C][Branch1][#Branch1][C][C][C][C][C][C][C][=C][Ring1][N][C][=C][C][=C][Branch1][#Branch1][C][C][C][C][C][C][C][=C][Ring1][N][C][=C][Ring2][Branch2][=Branch1],{[$]CCCCCCCC(CCCCCC)Cn1nc2c(-c3ccc[$]s3)c(F)c(F)c(-c3ccc(-c4cc5c(-c6ccc([Si](CCC)(CCC)CCC)s6)c6sc[$]cc6c(-c6ccc([Si](CCC)(CCC)CCC)s6)c5s4)s3)c2n1}.CCCCCCc1ccc(C2(c3ccc(CCCCCC)cc3)C3=C(SC4C=C(C=C5C(=O)c6cc(C)c(C)cc6C5=C(C#N)C#N)SC34)c3cc4c(cc32)-c2sc3cc(C=C5C(=O)c6cc(C)c(C)cc6C5=C(C#N)C#N)sc3c2C4(c2ccc(CCCCCC)cc2)c2ccc(CCCCCC)cc2)cc1