Donor,Acceptor,HOMO_D_eV,LUMO_D_eV,HOMO_A_eV,LUMO_A_eV,D_A_ratio_m_m,solvent,total_solids_conc_mg_mL,solvent_additive,annealing_temperature,PCE_percent,calc_PCE_percent,Voc_V,Jsc_mA_cm_pow_neg2,FF_percent,DA_SMILES,DA_SELFIES,DA_BigSMILES
J70,m-ITIC,-5.37,-2.91,-5.526666666666667,-3.8515384615384622,0.667,CF,20.0,_,150.0,11.62,11.62,0.92,18.09,69.82,CCCCCCCCC(CCCCCC)Cn1nc2c(-c3ccc(C)s3)c(F)c(F)c(-c3ccc(-c4cc5c(-c6ccc([Si](CC)(CC)CC)s6)c6sc(C)cc6c(-c6ccc([Si](CC)(CC)CC)s6)c5s4)s3)c2n1.CCCCCCc1cccc(C2(c3cccc(CCCCCC)c3)c3cc4c(cc3-c3sc5cc(/C=C6\C(=O)c7ccccc7C6=C(C#N)C#N)sc5c32)C(c2cccc(CCCCCC)c2)(c2cccc(CCCCCC)c2)c2c-4sc3cc(/C=C4\C(=O)c5ccccc5C4=C(C#N)C#N)sc23)c1,[C][C][C][C][C][C][C][C][C][Branch1][#Branch1][C][C][C][C][C][C][C][N][N][=C][C][Branch1][O][C][=C][C][=C][Branch1][C][C][S][Ring1][=Branch1][=C][Branch1][C][F][C][Branch1][C][F][=C][Branch2][=Branch1][P][C][=C][C][=C][Branch2][=Branch1][=Branch1][C][=C][C][=C][Branch2][Ring1][Branch1][C][=C][C][=C][Branch1][N][Si][Branch1][Ring1][C][C][Branch1][Ring1][C][C][C][C][S][Ring1][N][C][S][C][Branch1][C][C][=C][C][=Ring1][=Branch1][C][Branch2][Ring1][Branch1][C][=C][C][=C][Branch1][N][Si][Branch1][Ring1][C][C][Branch1][Ring1][C][C][C][C][S][Ring1][N][=C][Ring2][Ring2][C][S][Ring2][Ring2][Branch1][S][Ring2][Ring2][#Branch2][C][Ring2][Branch1][Branch2][=N][Ring2][Branch1][O].[C][C][C][C][C][C][C][=C][C][=C][C][Branch2][O][N][C][Branch1][P][C][=C][C][=C][C][Branch1][#Branch1][C][C][C][C][C][C][=C][Ring1][N][C][=C][C][=C][Branch2][Ring2][P][C][=C][Ring1][=Branch1][C][S][C][C][=C][Branch2][Ring1][=Branch2][/C][=C][\C][=Branch1][C][=O][C][=C][C][=C][C][=C][Ring1][=Branch1][C][Ring1][#Branch2][=C][Branch1][Ring1][C][#N][C][#N][S][C][=Ring2][Ring1][Branch1][C][=Ring2][Ring1][Branch2][Ring2][Ring2][O][C][Branch1][P][C][=C][C][=C][C][Branch1][#Branch1][C][C][C][C][C][C][=C][Ring1][N][Branch1][P][C][=C][C][=C][C][Branch1][#Branch1][C][C][C][C][C][C][=C][Ring1][N][C][=C][Ring2][Branch1][#Branch1][S][C][C][=C][Branch2][Ring1][=Branch2][/C][=C][\C][=Branch1][C][=O][C][=C][C][=C][C][=C][Ring1][=Branch1][C][Ring1][#Branch2][=C][Branch1][Ring1][C][#N][C][#N][S][C][Ring2][Ring1][Branch2][=Ring2][Ring1][Branch1][=C][Ring2][Branch2][C],{[$]CCCCCCCC(CCCCCC)Cn1nc2c(-c3ccc[$]s3)c(F)c(F)c(-c3ccc(-c4cc5c(-c6ccc([Si](CC)(CC)CC)s6)c6sc[$]cc6c(-c6ccc([Si](CC)(CC)CC)s6)c5s4)s3)c2n1}.CCCCCCc1cccc(C2(c3cccc(CCCCCC)c3)c3cc4c(cc3-c3sc5cc(/C=C6\C(=O)c7ccccc7C6=C(C#N)C#N)sc5c32)C(c2cccc(CCCCCC)c2)(c2cccc(CCCCCC)c2)c2c-4sc3cc(/C=C4\C(=O)c5ccccc5C4=C(C#N)C#N)sc23)c1
J71,m-ITIC,-5.353333333333333,-3.4318181818181825,-5.526666666666667,-3.8515384615384622,0.667,CF,20.0,_,150.0,12.05,12.05,0.944,18.09,70.59,CCCCCCCCC(CCCCCC)Cn1nc2c(-c3ccc(C)s3)c(F)c(F)c(-c3ccc(-c4cc5c(-c6ccc([Si](CCC)(CCC)CCC)s6)c6sc(C)cc6c(-c6ccc([Si](CCC)(CCC)CCC)s6)c5s4)s3)c2n1.CCCCCCc1cccc(C2(c3cccc(CCCCCC)c3)c3cc4c(cc3-c3sc5cc(/C=C6\C(=O)c7ccccc7C6=C(C#N)C#N)sc5c32)C(c2cccc(CCCCCC)c2)(c2cccc(CCCCCC)c2)c2c-4sc3cc(/C=C4\C(=O)c5ccccc5C4=C(C#N)C#N)sc23)c1,[C][C][C][C][C][C][C][C][C][Branch1][#Branch1][C][C][C][C][C][C][C][N][N][=C][C][Branch1][O][C][=C][C][=C][Branch1][C][C][S][Ring1][=Branch1][=C][Branch1][C][F][C][Branch1][C][F][=C][Branch2][#Branch1][#Branch1][C][=C][C][=C][Branch2][=Branch1][N][C][=C][C][=C][Branch2][Ring1][Branch2][C][=C][C][=C][Branch1][#C][Si][Branch1][Ring2][C][C][C][Branch1][Ring2][C][C][C][C][C][C][S][Ring1][#C][C][S][C][Branch1][C][C][=C][C][=Ring1][=Branch1][C][Branch2][Ring1][Branch2][C][=C][C][=C][Branch1][#C][Si][Branch1][Ring2][C][C][C][Branch1][Ring2][C][C][C][C][C][C][S][Ring1][#C][=C][Ring2][Ring2][Branch2][S][Ring2][Ring2][O][S][Ring2][Ring2][S][C][Ring2][Branch1][=C][=N][Ring2][Branch1][P].[C][C][C][C][C][C][C][=C][C][=C][C][Branch2][O][N][C][Branch1][P][C][=C][C][=C][C][Branch1][#Branch1][C][C][C][C][C][C][=C][Ring1][N][C][=C][C][=C][Branch2][Ring2][P][C][=C][Ring1][=Branch1][C][S][C][C][=C][Branch2][Ring1][=Branch2][/C][=C][\C][=Branch1][C][=O][C][=C][C][=C][C][=C][Ring1][=Branch1][C][Ring1][#Branch2][=C][Branch1][Ring1][C][#N][C][#N][S][C][=Ring2][Ring1][Branch1][C][=Ring2][Ring1][Branch2][Ring2][Ring2][O][C][Branch1][P][C][=C][C][=C][C][Branch1][#Branch1][C][C][C][C][C][C][=C][Ring1][N][Branch1][P][C][=C][C][=C][C][Branch1][#Branch1][C][C][C][C][C][C][=C][Ring1][N][C][=C][Ring2][Branch1][#Branch1][S][C][C][=C][Branch2][Ring1][=Branch2][/C][=C][\C][=Branch1][C][=O][C][=C][C][=C][C][=C][Ring1][=Branch1][C][Ring1][#Branch2][=C][Branch1][Ring1][C][#N][C][#N][S][C][Ring2][Ring1][Branch2][=Ring2][Ring1][Branch1][=C][Ring2][Branch2][C],{[$]CCCCCCCC(CCCCCC)Cn1nc2c(-c3ccc[$]s3)c(F)c(F)c(-c3ccc(-c4cc5c(-c6ccc([Si](CCC)(CCC)CCC)s6)c6sc[$]cc6c(-c6ccc([Si](CCC)(CCC)CCC)s6)c5s4)s3)c2n1}.CCCCCCc1cccc(C2(c3cccc(CCCCCC)c3)c3cc4c(cc3-c3sc5cc(/C=C6\C(=O)c7ccccc7C6=C(C#N)C#N)sc5c32)C(c2cccc(CCCCCC)c2)(c2cccc(CCCCCC)c2)c2c-4sc3cc(/C=C4\C(=O)c5ccccc5C4=C(C#N)C#N)sc23)c1
J72,m-ITIC,-5.42,-3.29,-5.526666666666667,-3.8515384615384622,0.667,CF,20.0,_,150.0,10.23,10.23,0.962,16.35,65.03,CCCCCCCCC(CCCCCC)Cn1nc2c(-c3ccc(C)s3)c(F)c(F)c(-c3ccc(-c4cc5c(-c6ccc([Si](C(C)C)(C(C)C)C(C)C)s6)c6sc(C)cc6c(-c6ccc([Si](C(C)C)(C(C)C)C(C)C)s6)c5s4)s3)c2n1.CCCCCCc1cccc(C2(c3cccc(CCCCCC)c3)c3cc4c(cc3-c3sc5cc(/C=C6\C(=O)c7ccccc7C6=C(C#N)C#N)sc5c32)C(c2cccc(CCCCCC)c2)(c2cccc(CCCCCC)c2)c2c-4sc3cc(/C=C4\C(=O)c5ccccc5C4=C(C#N)C#N)sc23)c1,[C][C][C][C][C][C][C][C][C][Branch1][#Branch1][C][C][C][C][C][C][C][N][N][=C][C][Branch1][O][C][=C][C][=C][Branch1][C][C][S][Ring1][=Branch1][=C][Branch1][C][F][C][Branch1][C][F][=C][Branch2][Branch2][Branch1][C][=C][C][=C][Branch2][#Branch1][#Branch2][C][=C][C][=C][Branch2][Ring1][#C][C][=C][C][=C][Branch2][Ring1][Branch1][Si][Branch1][=Branch1][C][Branch1][C][C][C][Branch1][=Branch1][C][Branch1][C][C][C][C][Branch1][C][C][C][S][Ring1][#C][C][S][C][Branch1][C][C][=C][C][=Ring1][=Branch1][C][Branch2][Ring1][#C][C][=C][C][=C][Branch2][Ring1][Branch1][Si][Branch1][=Branch1][C][Branch1][C][C][C][Branch1][=Branch1][C][Branch1][C][C][C][C][Branch1][C][C][C][S][Ring1][#C][=C][Ring2][Ring2][Branch2][S][Ring2][Ring2][O][S][Ring2][Ring2][S][C][Ring2][Branch1][=C][=N][Ring2][Branch1][P].[C][C][C][C][C][C][C][=C][C][=C][C][Branch2][O][N][C][Branch1][P][C][=C][C][=C][C][Branch1][#Branch1][C][C][C][C][C][C][=C][Ring1][N][C][=C][C][=C][Branch2][Ring2][P][C][=C][Ring1][=Branch1][C][S][C][C][=C][Branch2][Ring1][=Branch2][/C][=C][\C][=Branch1][C][=O][C][=C][C][=C][C][=C][Ring1][=Branch1][C][Ring1][#Branch2][=C][Branch1][Ring1][C][#N][C][#N][S][C][=Ring2][Ring1][Branch1][C][=Ring2][Ring1][Branch2][Ring2][Ring2][O][C][Branch1][P][C][=C][C][=C][C][Branch1][#Branch1][C][C][C][C][C][C][=C][Ring1][N][Branch1][P][C][=C][C][=C][C][Branch1][#Branch1][C][C][C][C][C][C][=C][Ring1][N][C][=C][Ring2][Branch1][#Branch1][S][C][C][=C][Branch2][Ring1][=Branch2][/C][=C][\C][=Branch1][C][=O][C][=C][C][=C][C][=C][Ring1][=Branch1][C][Ring1][#Branch2][=C][Branch1][Ring1][C][#N][C][#N][S][C][Ring2][Ring1][Branch2][=Ring2][Ring1][Branch1][=C][Ring2][Branch2][C],{[$]CCCCCCCC(CCCCCC)Cn1nc2c(-c3ccc[$]s3)c(F)c(F)c(-c3ccc(-c4cc5c(-c6ccc([Si](C[$]C)(C[$]C)C[$]C)s6)c6sc[$]cc6c(-c6ccc([Si](C[$]C)(C[$]C)C[$]C)s6)c5s4)s3)c2n1}.CCCCCCc1cccc(C2(c3cccc(CCCCCC)c3)c3cc4c(cc3-c3sc5cc(/C=C6\C(=O)c7ccccc7C6=C(C#N)C#N)sc5c32)C(c2cccc(CCCCCC)c2)(c2cccc(CCCCCC)c2)c2c-4sc3cc(/C=C4\C(=O)c5ccccc5C4=C(C#N)C#N)sc23)c1
J74,m-ITIC,-5.56,-3.06,-5.526666666666667,-3.8515384615384622,0.667,CF,20.0,_,150.0,9.63,9.62,0.99,15.89,61.18,CCCCCCCCC(CCCCCC)Cn1nc2c(-c3ccc(C)s3)c(F)c(F)c(-c3ccc(-c4cc5c(-c6ccc([Si](C)(C)CCCCCCCC)s6)c6sc(C)cc6c(-c6ccc([Si](C)(C)CCCCCCCC)s6)c5s4)s3)c2n1.CCCCCCc1cccc(C2(c3cccc(CCCCCC)c3)c3cc4c(cc3-c3sc5cc(/C=C6\C(=O)c7ccccc7C6=C(C#N)C#N)sc5c32)C(c2cccc(CCCCCC)c2)(c2cccc(CCCCCC)c2)c2c-4sc3cc(/C=C4\C(=O)c5ccccc5C4=C(C#N)C#N)sc23)c1,[C][C][C][C][C][C][C][C][C][Branch1][#Branch1][C][C][C][C][C][C][C][N][N][=C][C][Branch1][O][C][=C][C][=C][Branch1][C][C][S][Ring1][=Branch1][=C][Branch1][C][F][C][Branch1][C][F][=C][Branch2][#Branch1][=Branch2][C][=C][C][=C][Branch2][=Branch1][=C][C][=C][C][=C][Branch2][Ring1][=Branch2][C][=C][C][=C][Branch1][S][Si][Branch1][C][C][Branch1][C][C][C][C][C][C][C][C][C][C][S][Ring1][S][C][S][C][Branch1][C][C][=C][C][=Ring1][=Branch1][C][Branch2][Ring1][=Branch2][C][=C][C][=C][Branch1][S][Si][Branch1][C][C][Branch1][C][C][C][C][C][C][C][C][C][C][S][Ring1][S][=C][Ring2][Ring2][#Branch2][S][Ring2][Ring2][=N][S][Ring2][Branch1][C][C][Ring2][Branch1][S][=N][Ring2][=Branch1][Ring1].[C][C][C][C][C][C][C][=C][C][=C][C][Branch2][O][N][C][Branch1][P][C][=C][C][=C][C][Branch1][#Branch1][C][C][C][C][C][C][=C][Ring1][N][C][=C][C][=C][Branch2][Ring2][P][C][=C][Ring1][=Branch1][C][S][C][C][=C][Branch2][Ring1][=Branch2][/C][=C][\C][=Branch1][C][=O][C][=C][C][=C][C][=C][Ring1][=Branch1][C][Ring1][#Branch2][=C][Branch1][Ring1][C][#N][C][#N][S][C][=Ring2][Ring1][Branch1][C][=Ring2][Ring1][Branch2][Ring2][Ring2][O][C][Branch1][P][C][=C][C][=C][C][Branch1][#Branch1][C][C][C][C][C][C][=C][Ring1][N][Branch1][P][C][=C][C][=C][C][Branch1][#Branch1][C][C][C][C][C][C][=C][Ring1][N][C][=C][Ring2][Branch1][#Branch1][S][C][C][=C][Branch2][Ring1][=Branch2][/C][=C][\C][=Branch1][C][=O][C][=C][C][=C][C][=C][Ring1][=Branch1][C][Ring1][#Branch2][=C][Branch1][Ring1][C][#N][C][#N][S][C][Ring2][Ring1][Branch2][=Ring2][Ring1][Branch1][=C][Ring2][Branch2][C],{[$]CCCCCCCC(CCCCCC)Cn1nc2c(-c3ccc[$]s3)c(F)c(F)c(-c3ccc(-c4cc5c(-c6ccc([Si][$][$]CCCCCCCC)s6)c6sc[$]cc6c(-c6ccc([Si][$][$]CCCCCCCC)s6)c5s4)s3)c2n1}.CCCCCCc1cccc(C2(c3cccc(CCCCCC)c3)c3cc4c(cc3-c3sc5cc(/C=C6\C(=O)c7ccccc7C6=C(C#N)C#N)sc5c32)C(c2cccc(CCCCCC)c2)(c2cccc(CCCCCC)c2)c2c-4sc3cc(/C=C4\C(=O)c5ccccc5C4=C(C#N)C#N)sc23)c1
J91,m-ITIC,-5.5,-3.02,-5.526666666666667,-3.8515384615384622,0.667,CF,12.0,_,150.0,11.63,11.63,0.984,18.03,65.54,CCCCCCCCC(CCCCCC)Cn1nc2c(-c3ccc(C)s3)c(F)c(F)c(-c3ccc(-c4cc5c(-c6sc(CC(CC)CCCC)c(F)c6F)c6sc(C)cc6c(-c6sc(CC(CC)CCCC)c(F)c6F)c5s4)s3)c2n1.CCCCCCc1cccc(C2(c3cccc(CCCCCC)c3)c3cc4c(cc3-c3sc5cc(/C=C6\C(=O)c7ccccc7C6=C(C#N)C#N)sc5c32)C(c2cccc(CCCCCC)c2)(c2cccc(CCCCCC)c2)c2c-4sc3cc(/C=C4\C(=O)c5ccccc5C4=C(C#N)C#N)sc23)c1,[C][C][C][C][C][C][C][C][C][Branch1][#Branch1][C][C][C][C][C][C][C][N][N][=C][C][Branch1][O][C][=C][C][=C][Branch1][C][C][S][Ring1][=Branch1][=C][Branch1][C][F][C][Branch1][C][F][=C][Branch2][#Branch1][#Branch1][C][=C][C][=C][Branch2][=Branch1][N][C][=C][C][=C][Branch2][Ring1][Branch2][C][S][C][Branch1][O][C][C][Branch1][Ring1][C][C][C][C][C][C][=C][Branch1][C][F][C][=Ring1][=C][F][C][S][C][Branch1][C][C][=C][C][=Ring1][=Branch1][C][Branch2][Ring1][Branch2][C][S][C][Branch1][O][C][C][Branch1][Ring1][C][C][C][C][C][C][=C][Branch1][C][F][C][=Ring1][=C][F][=C][Ring2][Ring2][Branch2][S][Ring2][Ring2][O][S][Ring2][Ring2][S][C][Ring2][Branch1][=C][=N][Ring2][Branch1][P].[C][C][C][C][C][C][C][=C][C][=C][C][Branch2][O][N][C][Branch1][P][C][=C][C][=C][C][Branch1][#Branch1][C][C][C][C][C][C][=C][Ring1][N][C][=C][C][=C][Branch2][Ring2][P][C][=C][Ring1][=Branch1][C][S][C][C][=C][Branch2][Ring1][=Branch2][/C][=C][\C][=Branch1][C][=O][C][=C][C][=C][C][=C][Ring1][=Branch1][C][Ring1][#Branch2][=C][Branch1][Ring1][C][#N][C][#N][S][C][=Ring2][Ring1][Branch1][C][=Ring2][Ring1][Branch2][Ring2][Ring2][O][C][Branch1][P][C][=C][C][=C][C][Branch1][#Branch1][C][C][C][C][C][C][=C][Ring1][N][Branch1][P][C][=C][C][=C][C][Branch1][#Branch1][C][C][C][C][C][C][=C][Ring1][N][C][=C][Ring2][Branch1][#Branch1][S][C][C][=C][Branch2][Ring1][=Branch2][/C][=C][\C][=Branch1][C][=O][C][=C][C][=C][C][=C][Ring1][=Branch1][C][Ring1][#Branch2][=C][Branch1][Ring1][C][#N][C][#N][S][C][Ring2][Ring1][Branch2][=Ring2][Ring1][Branch1][=C][Ring2][Branch2][C],{[$]CCCCCCCC(CCCCCC)Cn1nc2c(-c3ccc[$]s3)c(F)c(F)c(-c3ccc(-c4cc5c(-c6sc(CC(CC)CCCC)c(F)c6F)c6sc[$]cc6c(-c6sc(CC(CC)CCCC)c(F)c6F)c5s4)s3)c2n1}.CCCCCCc1cccc(C2(c3cccc(CCCCCC)c3)c3cc4c(cc3-c3sc5cc(/C=C6\C(=O)c7ccccc7C6=C(C#N)C#N)sc5c32)C(c2cccc(CCCCCC)c2)(c2cccc(CCCCCC)c2)c2c-4sc3cc(/C=C4\C(=O)c5ccccc5C4=C(C#N)C#N)sc23)c1
J52,m-ITIC,-5.218571428571429,-3.341428571428572,-5.526666666666667,-3.8515384615384622,0.667,CF,12.0,_,150.0,5.98,5.98,0.701,17.16,49.73,CCCCCCCCC(CCCCCC)Cn1nc2c(-c3ccc(C)s3)c(F)c(F)c(-c3ccc(-c4cc5c(-c6ccc(CC(CC)CCCC)s6)c6sc(C)cc6c(-c6ccc(CC(CC)CCCC)s6)c5s4)s3)c2n1.CCCCCCc1cccc(C2(c3cccc(CCCCCC)c3)c3cc4c(cc3-c3sc5cc(/C=C6\C(=O)c7ccccc7C6=C(C#N)C#N)sc5c32)C(c2cccc(CCCCCC)c2)(c2cccc(CCCCCC)c2)c2c-4sc3cc(/C=C4\C(=O)c5ccccc5C4=C(C#N)C#N)sc23)c1,[C][C][C][C][C][C][C][C][C][Branch1][#Branch1][C][C][C][C][C][C][C][N][N][=C][C][Branch1][O][C][=C][C][=C][Branch1][C][C][S][Ring1][=Branch1][=C][Branch1][C][F][C][Branch1][C][F][=C][Branch2][=Branch1][#C][C][=C][C][=C][Branch2][=Branch1][Ring2][C][=C][C][=C][Branch2][Ring1][Ring2][C][=C][C][=C][Branch1][O][C][C][Branch1][Ring1][C][C][C][C][C][C][S][Ring1][=N][C][S][C][Branch1][C][C][=C][C][=Ring1][=Branch1][C][Branch2][Ring1][Ring2][C][=C][C][=C][Branch1][O][C][C][Branch1][Ring1][C][C][C][C][C][C][S][Ring1][=N][=C][Ring2][Ring2][Ring2][S][Ring2][Ring2][#Branch1][S][Ring2][Ring2][N][C][Ring2][Branch1][#Branch2][=N][Ring2][Branch1][=N].[C][C][C][C][C][C][C][=C][C][=C][C][Branch2][O][N][C][Branch1][P][C][=C][C][=C][C][Branch1][#Branch1][C][C][C][C][C][C][=C][Ring1][N][C][=C][C][=C][Branch2][Ring2][P][C][=C][Ring1][=Branch1][C][S][C][C][=C][Branch2][Ring1][=Branch2][/C][=C][\C][=Branch1][C][=O][C][=C][C][=C][C][=C][Ring1][=Branch1][C][Ring1][#Branch2][=C][Branch1][Ring1][C][#N][C][#N][S][C][=Ring2][Ring1][Branch1][C][=Ring2][Ring1][Branch2][Ring2][Ring2][O][C][Branch1][P][C][=C][C][=C][C][Branch1][#Branch1][C][C][C][C][C][C][=C][Ring1][N][Branch1][P][C][=C][C][=C][C][Branch1][#Branch1][C][C][C][C][C][C][=C][Ring1][N][C][=C][Ring2][Branch1][#Branch1][S][C][C][=C][Branch2][Ring1][=Branch2][/C][=C][\C][=Branch1][C][=O][C][=C][C][=C][C][=C][Ring1][=Branch1][C][Ring1][#Branch2][=C][Branch1][Ring1][C][#N][C][#N][S][C][Ring2][Ring1][Branch2][=Ring2][Ring1][Branch1][=C][Ring2][Branch2][C],{[$]CCCCCCCC(CCCCCC)Cn1nc2c(-c3ccc[$]s3)c(F)c(F)c(-c3ccc(-c4cc5c(-c6ccc(CC(CC)CCCC)s6)c6sc[$]cc6c(-c6ccc(CC(CC)CCCC)s6)c5s4)s3)c2n1}.CCCCCCc1cccc(C2(c3cccc(CCCCCC)c3)c3cc4c(cc3-c3sc5cc(/C=C6\C(=O)c7ccccc7C6=C(C#N)C#N)sc5c32)C(c2cccc(CCCCCC)c2)(c2cccc(CCCCCC)c2)c2c-4sc3cc(/C=C4\C(=O)c5ccccc5C4=C(C#N)C#N)sc23)c1
J61,TP21,-5.303333333333334,-3.151666666666667,-5.46,-3.61,1.0,CB,20.0,_,140.0,5.81,5.85,1.05,10.92,51.0,CCCCCCCCCCCCSSc1ccc(-c2c3cc(-c4ccc(-c5c(F)c(F)c(-c6ccc(C)s6)c6nn(CC(CCCCCC)CCCCCCCC)nc56)s4)sc3c(-c3ccc(SSCCCCCCCCCCCC)s3)c3cc(C)sc23)s1.CCCCCCCCC1(CCCCCCCC)c2cc(-c3sc(/C=C4/SC(=S)N(CC)C4=O)c4nc(-c5ccccc5)c(-c5ccccc5)nc34)ccc2-c2ccc(-c3sc(/C=C4/SC(=S)N(CC)C4=O)c4nc(-c5ccccc5)c(-c5ccccc5)nc34)cc21,[C][C][C][C][C][C][C][C][C][C][C][C][S][S][C][=C][C][=C][Branch2][=Branch2][#Branch1][C][=C][C][=C][Branch2][=Branch1][C][C][=C][C][=C][Branch2][Branch1][#Branch1][C][=C][Branch1][C][F][C][Branch1][C][F][=C][Branch1][O][C][=C][C][=C][Branch1][C][C][S][Ring1][=Branch1][C][=N][N][Branch2][Ring1][Ring1][C][C][Branch1][#Branch1][C][C][C][C][C][C][C][C][C][C][C][C][C][C][N][=C][Ring2][Ring1][P][Ring2][Ring1][Branch1][S][Ring2][Ring2][=Branch1][S][C][Ring2][Ring2][O][=C][Branch2][Ring1][=Branch2][C][=C][C][=C][Branch1][#C][S][S][C][C][C][C][C][C][C][C][C][C][C][C][S][Ring2][Ring1][Ring1][C][C][=C][Branch1][C][C][S][C][Ring2][=Branch1][=Branch1][=Ring1][=Branch1][S][Ring2][=Branch1][O].[C][C][C][C][C][C][C][C][C][Branch1][=Branch2][C][C][C][C][C][C][C][C][C][=C][C][Branch2][Branch1][=Branch1][C][S][C][Branch1][P][/C][=C][/S][C][=Branch1][C][=S][N][Branch1][Ring1][C][C][C][Ring1][Branch2][=O][=C][N][=C][Branch1][=Branch2][C][=C][C][=C][C][=C][Ring1][=Branch1][C][Branch1][=Branch2][C][=C][C][=C][C][=C][Ring1][=Branch1][=N][C][=Ring2][Ring1][#C][Ring2][Ring1][C][=C][C][=C][Ring2][Ring2][Branch1][C][=C][C][=C][Branch2][Branch1][=Branch1][C][S][C][Branch1][P][/C][=C][/S][C][=Branch1][C][=S][N][Branch1][Ring1][C][C][C][Ring1][Branch2][=O][=C][N][=C][Branch1][=Branch2][C][=C][C][=C][C][=C][Ring1][=Branch1][C][Branch1][=Branch2][C][=C][C][=C][C][=C][Ring1][=Branch1][=N][C][=Ring2][Ring1][#C][Ring2][Ring1][C][C][=C][Ring2][Ring2][Branch1][Ring2][#Branch1][Ring1],{[$]CCCCCCCCCCCSSc1ccc(-c2c3cc(-c4ccc(-c5c(F)c(F)c(-c6ccc[$]s6)c6nn(CC(CCCCCC)CCCCCCCC)nc56)s4)sc3c(-c3ccc(SSCCCCCCCCCCCC)s3)c3cc[$]sc23)s1}.CCCCCCCCC1(CCCCCCCC)c2cc(-c3sc(/C=C4/SC(=S)N(CC)C4=O)c4nc(-c5ccccc5)c(-c5ccccc5)nc34)ccc2-c2ccc(-c3sc(/C=C4/SC(=S)N(CC)C4=O)c4nc(-c5ccccc5)c(-c5ccccc5)nc34)cc21
FTAZ,IOIC2,-5.43,-3.3200000000000003,-5.41,-3.78,0.667,CF,13.5,DIO,25.0,12.3,12.29,0.9,19.7,69.3,CCCCCCC(CCCC)CSc1c2cc(-c3ccc(-c4c(F)c(F)c(-c5ccc(C)s5)c5nn(SCC(CCCC)CCCCCC)nc45)s3)sc2c(SCC(CCCC)CCCCCC)c2cc(C)sc12.CCCCCCc1ccc(C2(c3ccc(CCCCCC)cc3)c3cc(/C=C4\C(=O)c5cc(F)c(F)cc5C4=C(C#N)C#N)sc3-c3sc4c(c(CCCCCC)cc5c4cc(CCCCCC)c4c6c(sc45)-c4sc(/C=C5\C(=O)c7cc(F)c(F)cc7C5=C(C#N)C#N)cc4C6(c4ccc(CCCCCC)cc4)c4ccc(CCCCCC)cc4)c32)cc1,[C][C][C][C][C][C][C][Branch1][Branch1][C][C][C][C][C][S][C][=C][C][=C][Branch2][Branch1][=C][C][=C][C][=C][Branch2][Branch1][Ring1][C][=C][Branch1][C][F][C][Branch1][C][F][=C][Branch1][O][C][=C][C][=C][Branch1][C][C][S][Ring1][=Branch1][C][=N][N][Branch1][S][S][C][C][Branch1][Branch1][C][C][C][C][C][C][C][C][C][C][N][=C][Ring2][Ring1][=C][Ring2][Ring1][C][S][Ring2][Ring2][Ring1][S][C][Ring2][Ring2][Branch2][=C][Branch1][S][S][C][C][Branch1][Branch1][C][C][C][C][C][C][C][C][C][C][C][C][=C][Branch1][C][C][S][C][Ring2][Branch1][=N][=Ring1][=Branch1].[C][C][C][C][C][C][C][=C][C][=C][Branch2][=N][=N][C][Branch1][P][C][=C][C][=C][Branch1][#Branch1][C][C][C][C][C][C][C][=C][Ring1][N][C][C][=C][Branch2][Ring1][#C][/C][=C][\C][=Branch1][C][=O][C][=C][C][Branch1][C][F][=C][Branch1][C][F][C][=C][Ring1][Branch2][C][Ring1][N][=C][Branch1][Ring1][C][#N][C][#N][S][C][=Ring2][Ring1][#Branch1][C][S][C][=C][Branch2][=Branch2][Ring1][C][Branch1][#Branch1][C][C][C][C][C][C][=C][C][=C][Ring1][N][C][=C][Branch1][#Branch1][C][C][C][C][C][C][C][C][=C][Branch1][#Branch1][S][C][=Ring1][Branch1][Ring1][#C][C][S][C][Branch2][Ring1][#C][/C][=C][\C][=Branch1][C][=O][C][=C][C][Branch1][C][F][=C][Branch1][C][F][C][=C][Ring1][Branch2][C][Ring1][N][=C][Branch1][Ring1][C][#N][C][#N][=C][C][=Ring2][Ring1][#Branch1][C][Ring2][Ring1][N][Branch1][P][C][=C][C][=C][Branch1][#Branch1][C][C][C][C][C][C][C][=C][Ring1][N][C][=C][C][=C][Branch1][#Branch1][C][C][C][C][C][C][C][=C][Ring1][N][C][=Ring2][=Branch1][N][Ring2][Branch2][S][C][=C][Ring2][=Branch2][=Branch1],{[$]CCCCCC(CCCC)CSc1c2cc(-c3ccc(-c4c(F)c(F)c(-c5ccc[$]s5)c5nn(SCC(CCCC)CCCCCC)nc45)s3)sc2c(SCC(CCCC)CCCCCC)c2cc[$]sc12}.CCCCCCc1ccc(C2(c3ccc(CCCCCC)cc3)c3cc(/C=C4\C(=O)c5cc(F)c(F)cc5C4=C(C#N)C#N)sc3-c3sc4c(c(CCCCCC)cc5c4cc(CCCCCC)c4c6c(sc45)-c4sc(/C=C5\C(=O)c7cc(F)c(F)cc7C5=C(C#N)C#N)cc4C6(c4ccc(CCCCCC)cc4)c4ccc(CCCCCC)cc4)c32)cc1