Donor,Acceptor,HOMO_D_eV,LUMO_D_eV,HOMO_A_eV,LUMO_A_eV,D_A_ratio_m_m,solvent,total_solids_conc_mg_mL,solvent_additive,annealing_temperature,PCE_percent,calc_PCE_percent,Voc_V,Jsc_mA_cm_pow_neg2,FF_percent,DA_SMILES,DA_SELFIES,DA_BigSMILES
PBDB-T,IDTTIC,-5.297714285714285,-3.4170000000000003,-5.68,-3.84,1.0,CB,20.0,_,25.0,11.2,11.19,0.919,17.3,70.4,CCCCC(CC)Cc1ccc(-c2c3cc(-c4ccc(-c5sc(-c6ccc(C)s6)c6c5C(=O)c5c(CC(CC)CCCC)sc(CC(CC)CCCC)c5C6=O)s4)sc3c(-c3ccc(CC(CC)CCCC)s3)c3cc(C)sc23)s1.CCCCCCCCC(CCCCCC)CC1(CC(CCCCCC)CCCCCCCC)c2cc3c(cc2-c2sc4cc(/C=C5\C(=O)c6ccccc6C5=C(C#N)C#N)sc4c21)C(CC(CCCCCC)CCCCCCCC)(CC(CCCCCC)CCCCCCCC)c1c-3sc2cc(/C=C3\C(=O)c4ccccc4C3=C(C#N)C#N)sc12,[C][C][C][C][C][Branch1][Ring1][C][C][C][C][=C][C][=C][Branch2][=Branch2][Branch2][C][=C][C][=C][Branch2][=Branch1][Branch2][C][=C][C][=C][Branch2][Branch1][=N][C][S][C][Branch1][O][C][=C][C][=C][Branch1][C][C][S][Ring1][=Branch1][=C][C][=Ring1][O][C][=Branch1][C][=O][C][=C][Branch1][O][C][C][Branch1][Ring1][C][C][C][C][C][C][S][C][Branch1][O][C][C][Branch1][Ring1][C][C][C][C][C][C][=C][Ring2][Ring1][Branch1][C][Ring2][Ring1][#Branch2][=O][S][Ring2][Ring2][=Branch2][S][C][Ring2][Ring2][=C][=C][Branch2][Ring1][Ring2][C][=C][C][=C][Branch1][O][C][C][Branch1][Ring1][C][C][C][C][C][C][S][Ring1][=N][C][C][=C][Branch1][C][C][S][C][Ring2][=Branch1][Ring1][=Ring1][=Branch1][S][Ring2][=Branch1][Branch2].[C][C][C][C][C][C][C][C][C][Branch1][#Branch1][C][C][C][C][C][C][C][C][Branch2][Ring1][Ring1][C][C][Branch1][#Branch1][C][C][C][C][C][C][C][C][C][C][C][C][C][C][C][=C][C][=C][Branch2][Ring2][P][C][=C][Ring1][=Branch1][C][S][C][C][=C][Branch2][Ring1][=Branch2][/C][=C][\C][=Branch1][C][=O][C][=C][C][=C][C][=C][Ring1][=Branch1][C][Ring1][#Branch2][=C][Branch1][Ring1][C][#N][C][#N][S][C][=Ring2][Ring1][Branch1][C][=Ring2][Ring1][Branch2][Ring2][Ring2][#C][C][Branch2][Ring1][Ring1][C][C][Branch1][#Branch1][C][C][C][C][C][C][C][C][C][C][C][C][C][C][Branch2][Ring1][Ring1][C][C][Branch1][#Branch1][C][C][C][C][C][C][C][C][C][C][C][C][C][C][C][=C][Ring2][Branch1][#C][S][C][C][=C][Branch2][Ring1][=Branch2][/C][=C][\C][=Branch1][C][=O][C][=C][C][=C][C][=C][Ring1][=Branch1][C][Ring1][#Branch2][=C][Branch1][Ring1][C][#N][C][#N][S][C][Ring2][Ring1][Branch2][=Ring2][Ring1][Branch1],{[$]CCCC(CC)Cc1ccc(-c2c3cc(-c4ccc(-c5sc(-c6ccc[$]s6)c6c5C(=O)c5c(CC(CC)CCCC)sc(CC(CC)CCCC)c5C6=O)s4)sc3c(-c3ccc(CC(CC)CCCC)s3)c3cc[$]sc23)s1}.CCCCCCCCC(CCCCCC)CC1(CC(CCCCCC)CCCCCCCC)c2cc3c(cc2-c2sc4cc(/C=C5\C(=O)c6ccccc6C5=C(C#N)C#N)sc4c21)C(CC(CCCCCC)CCCCCCCC)(CC(CCCCCC)CCCCCCCC)c1c-3sc2cc(/C=C3\C(=O)c4ccccc4C3=C(C#N)C#N)sc12
PTB7-Th,ITIC,-5.204782608695651,-3.5391891891891896,-5.574146341463415,-3.915,0.667,CB,25.0,_,25.0,7.62,7.62,0.822,14.0,66.2,CCCCC(CC)COC(=O)c1sc2c(-c3cc4c(-c5ccc(CC(CC)CCCC)s5)c5sc(C)cc5c(-c5ccc(CC(CC)CCCC)s5)c4s3)sc(C)c2c1F.CCCCCCc1ccc(C2(c3ccc(CCCCCC)cc3)c3cc4c(cc3-c3sc5cc(/C=C6\C(=O)c7ccccc7C6=C(C#N)C#N)sc5c32)C(c2ccc(CCCCCC)cc2)(c2ccc(CCCCCC)cc2)c2c-4sc3cc(/C=C4\C(=O)c5ccccc5C4=C(C#N)C#N)sc23)cc1,[C][C][C][C][C][Branch1][Ring1][C][C][C][O][C][=Branch1][C][=O][C][S][C][=C][Branch2][=Branch1][Ring2][C][=C][C][=C][Branch2][Ring1][Ring2][C][=C][C][=C][Branch1][O][C][C][Branch1][Ring1][C][C][C][C][C][C][S][Ring1][=N][C][S][C][Branch1][C][C][=C][C][=Ring1][=Branch1][C][Branch2][Ring1][Ring2][C][=C][C][=C][Branch1][O][C][C][Branch1][Ring1][C][C][C][C][C][C][S][Ring1][=N][=C][Ring2][Ring2][Ring2][S][Ring2][Ring2][#Branch1][S][C][Branch1][C][C][=C][Ring2][Ring2][=N][C][=Ring2][Ring2][S][F].[C][C][C][C][C][C][C][=C][C][=C][Branch2][O][N][C][Branch1][P][C][=C][C][=C][Branch1][#Branch1][C][C][C][C][C][C][C][=C][Ring1][N][C][=C][C][=C][Branch2][Ring2][P][C][=C][Ring1][=Branch1][C][S][C][C][=C][Branch2][Ring1][=Branch2][/C][=C][\C][=Branch1][C][=O][C][=C][C][=C][C][=C][Ring1][=Branch1][C][Ring1][#Branch2][=C][Branch1][Ring1][C][#N][C][#N][S][C][=Ring2][Ring1][Branch1][C][=Ring2][Ring1][Branch2][Ring2][Ring2][O][C][Branch1][P][C][=C][C][=C][Branch1][#Branch1][C][C][C][C][C][C][C][=C][Ring1][N][Branch1][P][C][=C][C][=C][Branch1][#Branch1][C][C][C][C][C][C][C][=C][Ring1][N][C][=C][Ring2][Branch1][#Branch1][S][C][C][=C][Branch2][Ring1][=Branch2][/C][=C][\C][=Branch1][C][=O][C][=C][C][=C][C][=C][Ring1][=Branch1][C][Ring1][#Branch2][=C][Branch1][Ring1][C][#N][C][#N][S][C][Ring2][Ring1][Branch2][=Ring2][Ring1][Branch1][C][=C][Ring2][Branch2][C],{[$]CCCC(CC)COC(=O)c1sc2c(-c3cc4c(-c5ccc(CC(CC)CCCC)s5)c5sc[$]cc5c(-c5ccc(CC(CC)CCCC)s5)c4s3)sc[$]c2c1F}.CCCCCCc1ccc(C2(c3ccc(CCCCCC)cc3)c3cc4c(cc3-c3sc5cc(/C=C6\C(=O)c7ccccc7C6=C(C#N)C#N)sc5c32)C(c2ccc(CCCCCC)cc2)(c2ccc(CCCCCC)cc2)c2c-4sc3cc(/C=C4\C(=O)c5ccccc5C4=C(C#N)C#N)sc23)cc1
PBDB-T,4TIC-4F,-5.297714285714285,-3.4170000000000003,-5.6,-4.21,1.0,CB,20.0,_,130.0,7.99,7.99,0.652,21.5,57.0,CCCCC(CC)Cc1ccc(-c2c3cc(-c4ccc(-c5sc(-c6ccc(C)s6)c6c5C(=O)c5c(CC(CC)CCCC)sc(CC(CC)CCCC)c5C6=O)s4)sc3c(-c3ccc(CC(CC)CCCC)s3)c3cc(C)sc23)s1.CCCCCCc1ccc(C2(c3ccc(CCCCCC)cc3)c3cc(/C=C4\C(=O)c5cc(F)c(F)cc5C4=C(C#N)C#N)sc3-c3sc4c5c(sc4c32)-c2sc(/C=C3\C(=O)c4cc(F)c(F)cc4C3=C(C#N)C#N)cc2C5(c2ccc(CCCCCC)cc2)c2ccc(CCCCCC)cc2)cc1,[C][C][C][C][C][Branch1][Ring1][C][C][C][C][=C][C][=C][Branch2][=Branch2][Branch2][C][=C][C][=C][Branch2][=Branch1][Branch2][C][=C][C][=C][Branch2][Branch1][=N][C][S][C][Branch1][O][C][=C][C][=C][Branch1][C][C][S][Ring1][=Branch1][=C][C][=Ring1][O][C][=Branch1][C][=O][C][=C][Branch1][O][C][C][Branch1][Ring1][C][C][C][C][C][C][S][C][Branch1][O][C][C][Branch1][Ring1][C][C][C][C][C][C][=C][Ring2][Ring1][Branch1][C][Ring2][Ring1][#Branch2][=O][S][Ring2][Ring2][=Branch2][S][C][Ring2][Ring2][=C][=C][Branch2][Ring1][Ring2][C][=C][C][=C][Branch1][O][C][C][Branch1][Ring1][C][C][C][C][C][C][S][Ring1][=N][C][C][=C][Branch1][C][C][S][C][Ring2][=Branch1][Ring1][=Ring1][=Branch1][S][Ring2][=Branch1][Branch2].[C][C][C][C][C][C][C][=C][C][=C][Branch2][O][=N][C][Branch1][P][C][=C][C][=C][Branch1][#Branch1][C][C][C][C][C][C][C][=C][Ring1][N][C][C][=C][Branch2][Ring1][#C][/C][=C][\C][=Branch1][C][=O][C][=C][C][Branch1][C][F][=C][Branch1][C][F][C][=C][Ring1][Branch2][C][Ring1][N][=C][Branch1][Ring1][C][#N][C][#N][S][C][=Ring2][Ring1][#Branch1][C][S][C][C][=C][Branch1][O][S][C][=Ring1][Branch1][C][=Ring1][Branch2][Ring2][Ring2][N][C][S][C][Branch2][Ring1][#C][/C][=C][\C][=Branch1][C][=O][C][=C][C][Branch1][C][F][=C][Branch1][C][F][C][=C][Ring1][Branch2][C][Ring1][N][=C][Branch1][Ring1][C][#N][C][#N][=C][C][=Ring2][Ring1][#Branch1][C][Ring2][Ring1][=N][Branch1][P][C][=C][C][=C][Branch1][#Branch1][C][C][C][C][C][C][C][=C][Ring1][N][C][=C][C][=C][Branch1][#Branch1][C][C][C][C][C][C][C][=C][Ring1][N][C][=C][Ring2][Branch2][C],{[$]CCCC(CC)Cc1ccc(-c2c3cc(-c4ccc(-c5sc(-c6ccc[$]s6)c6c5C(=O)c5c(CC(CC)CCCC)sc(CC(CC)CCCC)c5C6=O)s4)sc3c(-c3ccc(CC(CC)CCCC)s3)c3cc[$]sc23)s1}.CCCCCCc1ccc(C2(c3ccc(CCCCCC)cc3)c3cc(/C=C4\C(=O)c5cc(F)c(F)cc5C4=C(C#N)C#N)sc3-c3sc4c5c(sc4c32)-c2sc(/C=C3\C(=O)c4cc(F)c(F)cc4C3=C(C#N)C#N)cc2C5(c2ccc(CCCCCC)cc2)c2ccc(CCCCCC)cc2)cc1
PBDB-T,6TIC-4F,-5.297714285714285,-3.4170000000000003,-5.45,-4.14,1.0,CB,20.0,_,25.0,11.14,11.14,0.723,23.0,67.0,CCCCC(CC)Cc1ccc(-c2c3cc(-c4ccc(-c5sc(-c6ccc(C)s6)c6c5C(=O)c5c(CC(CC)CCCC)sc(CC(CC)CCCC)c5C6=O)s4)sc3c(-c3ccc(CC(CC)CCCC)s3)c3cc(C)sc23)s1.CCCCCCc1ccc(C2(c3ccc(CCCCCC)cc3)c3c(sc4cc(/C=C5\C(=O)c6cc(F)c(F)cc6C5=C(C#N)C#N)sc34)-c3sc4c5c(sc4c32)-c2sc3cc(/C=C4\C(=O)c6cc(F)c(F)cc6C4=C(C#N)C#N)sc3c2C5(c2ccc(CCCCCC)cc2)c2ccc(CCCCCC)cc2)cc1,[C][C][C][C][C][Branch1][Ring1][C][C][C][C][=C][C][=C][Branch2][=Branch2][Branch2][C][=C][C][=C][Branch2][=Branch1][Branch2][C][=C][C][=C][Branch2][Branch1][=N][C][S][C][Branch1][O][C][=C][C][=C][Branch1][C][C][S][Ring1][=Branch1][=C][C][=Ring1][O][C][=Branch1][C][=O][C][=C][Branch1][O][C][C][Branch1][Ring1][C][C][C][C][C][C][S][C][Branch1][O][C][C][Branch1][Ring1][C][C][C][C][C][C][=C][Ring2][Ring1][Branch1][C][Ring2][Ring1][#Branch2][=O][S][Ring2][Ring2][=Branch2][S][C][Ring2][Ring2][=C][=C][Branch2][Ring1][Ring2][C][=C][C][=C][Branch1][O][C][C][Branch1][Ring1][C][C][C][C][C][C][S][Ring1][=N][C][C][=C][Branch1][C][C][S][C][Ring2][=Branch1][Ring1][=Ring1][=Branch1][S][Ring2][=Branch1][Branch2].[C][C][C][C][C][C][C][=C][C][=C][Branch2][N][N][C][Branch1][P][C][=C][C][=C][Branch1][#Branch1][C][C][C][C][C][C][C][=C][Ring1][N][C][=C][Branch2][Ring2][=C][S][C][C][=C][Branch2][Ring1][#C][/C][=C][\C][=Branch1][C][=O][C][=C][C][Branch1][C][F][=C][Branch1][C][F][C][=C][Ring1][Branch2][C][Ring1][N][=C][Branch1][Ring1][C][#N][C][#N][S][C][Ring2][Ring1][#Branch2][=Ring2][Ring1][#Branch1][C][S][C][C][=C][Branch1][O][S][C][=Ring1][Branch1][C][=Ring1][Branch2][Ring2][Ring2][#C][C][S][C][C][=C][Branch2][Ring1][#C][/C][=C][\C][=Branch1][C][=O][C][=C][C][Branch1][C][F][=C][Branch1][C][F][C][=C][Ring1][Branch2][C][Ring1][N][=C][Branch1][Ring1][C][#N][C][#N][S][C][=Ring2][Ring1][#Branch1][C][=Ring2][Ring1][#Branch2][C][Ring2][Ring1][S][Branch1][P][C][=C][C][=C][Branch1][#Branch1][C][C][C][C][C][C][C][=C][Ring1][N][C][=C][C][=C][Branch1][#Branch1][C][C][C][C][C][C][C][=C][Ring1][N][C][=C][Ring2][Branch2][Branch2],{[$]CCCC(CC)Cc1ccc(-c2c3cc(-c4ccc(-c5sc(-c6ccc[$]s6)c6c5C(=O)c5c(CC(CC)CCCC)sc(CC(CC)CCCC)c5C6=O)s4)sc3c(-c3ccc(CC(CC)CCCC)s3)c3cc[$]sc23)s1}.CCCCCCc1ccc(C2(c3ccc(CCCCCC)cc3)c3c(sc4cc(/C=C5\C(=O)c6cc(F)c(F)cc6C5=C(C#N)C#N)sc34)-c3sc4c5c(sc4c32)-c2sc3cc(/C=C4\C(=O)c6cc(F)c(F)cc6C4=C(C#N)C#N)sc3c2C5(c2ccc(CCCCCC)cc2)c2ccc(CCCCCC)cc2)cc1
PBDB-T,ITBTR-C2,-5.297714285714285,-3.4170000000000003,-5.3,-3.7,1.0,CB,20.0,DIO,25.0,6.96,6.96,0.89,13.38,58.42,CCCCC(CC)Cc1ccc(-c2c3cc(-c4ccc(-c5sc(-c6ccc(C)s6)c6c5C(=O)c5c(CC(CC)CCCC)sc(CC(CC)CCCC)c5C6=O)s4)sc3c(-c3ccc(CC(CC)CCCC)s3)c3cc(C)sc23)s1.CCCCCCc1ccc(C2(c3ccc(CCCCCC)cc3)c3cc4c(cc3-c3sc5cc(-c6ccc(/C=c7\sc(=C(C#N)C#N)n(CC)c7=O)c7nsnc67)sc5c32)C(c2ccc(CCCCCC)cc2)(c2ccc(CCCCCC)cc2)c2c-4sc3cc(-c4ccc(/C=c5\sc(=C(C#N)C#N)n(CC)c5=O)c5nsnc45)sc23)cc1,[C][C][C][C][C][Branch1][Ring1][C][C][C][C][=C][C][=C][Branch2][=Branch2][Branch2][C][=C][C][=C][Branch2][=Branch1][Branch2][C][=C][C][=C][Branch2][Branch1][=N][C][S][C][Branch1][O][C][=C][C][=C][Branch1][C][C][S][Ring1][=Branch1][=C][C][=Ring1][O][C][=Branch1][C][=O][C][=C][Branch1][O][C][C][Branch1][Ring1][C][C][C][C][C][C][S][C][Branch1][O][C][C][Branch1][Ring1][C][C][C][C][C][C][=C][Ring2][Ring1][Branch1][C][Ring2][Ring1][#Branch2][=O][S][Ring2][Ring2][=Branch2][S][C][Ring2][Ring2][=C][=C][Branch2][Ring1][Ring2][C][=C][C][=C][Branch1][O][C][C][Branch1][Ring1][C][C][C][C][C][C][S][Ring1][=N][C][C][=C][Branch1][C][C][S][C][Ring2][=Branch1][Ring1][=Ring1][=Branch1][S][Ring2][=Branch1][Branch2].[C][C][C][C][C][C][C][=C][C][=C][Branch2][=N][#Branch2][C][Branch1][P][C][=C][C][=C][Branch1][#Branch1][C][C][C][C][C][C][C][=C][Ring1][N][C][=C][C][=C][Branch2][Branch1][S][C][=C][Ring1][=Branch1][C][S][C][C][=C][Branch2][Ring2][Branch2][C][=C][C][=C][Branch2][Ring1][#Branch1][/C][=C][\S][C][=Branch1][Branch2][=C][Branch1][Ring1][C][#N][C][#N][N][Branch1][Ring1][C][C][C][Ring1][N][=O][C][=N][S][N][=C][Ring2][Ring1][#Branch1][Ring1][Branch1][S][C][=Ring2][Ring1][N][C][=Ring2][Ring1][#C][Ring2][Branch1][C][C][Branch1][P][C][=C][C][=C][Branch1][#Branch1][C][C][C][C][C][C][C][=C][Ring1][N][Branch1][P][C][=C][C][=C][Branch1][#Branch1][C][C][C][C][C][C][C][=C][Ring1][N][C][=C][Ring2][Branch1][=C][S][C][C][=C][Branch2][Ring2][Branch2][C][=C][C][=C][Branch2][Ring1][#Branch1][/C][=C][\S][C][=Branch1][Branch2][=C][Branch1][Ring1][C][#N][C][#N][N][Branch1][Ring1][C][C][C][Ring1][N][=O][C][=N][S][N][=C][Ring2][Ring1][#Branch1][Ring1][Branch1][S][C][Ring2][Ring1][#C][=Ring2][Ring1][N][C][=C][Ring2][Branch2][S],{[$]CCCC(CC)Cc1ccc(-c2c3cc(-c4ccc(-c5sc(-c6ccc[$]s6)c6c5C(=O)c5c(CC(CC)CCCC)sc(CC(CC)CCCC)c5C6=O)s4)sc3c(-c3ccc(CC(CC)CCCC)s3)c3cc[$]sc23)s1}.CCCCCCc1ccc(C2(c3ccc(CCCCCC)cc3)c3cc4c(cc3-c3sc5cc(-c6ccc(/C=c7\sc(=C(C#N)C#N)n(CC)c7=O)c7nsnc67)sc5c32)C(c2ccc(CCCCCC)cc2)(c2ccc(CCCCCC)cc2)c2c-4sc3cc(-c4ccc(/C=c5\sc(=C(C#N)C#N)n(CC)c5=O)c5nsnc45)sc23)cc1
PBDB-T,ITBTR-C4,-5.297714285714285,-3.4170000000000003,-5.3,-3.71,1.0,CB,20.0,DIO,25.0,7.33,7.19,0.9,14.75,54.15,CCCCC(CC)Cc1ccc(-c2c3cc(-c4ccc(-c5sc(-c6ccc(C)s6)c6c5C(=O)c5c(CC(CC)CCCC)sc(CC(CC)CCCC)c5C6=O)s4)sc3c(-c3ccc(CC(CC)CCCC)s3)c3cc(C)sc23)s1.CCCCCCc1ccc(C2(c3ccc(CCCCCC)cc3)c3cc4c(cc3-c3sc5cc(-c6ccc(/C=c7\sc(=C(C#N)C#N)n(CCCC)c7=O)c7nsnc67)sc5c32)C(c2ccc(CCCCCC)cc2)(c2ccc(CCCCCC)cc2)c2c-4sc3cc(-c4ccc(/C=c5\sc(=C(C#N)C#N)n(CCCC)c5=O)c5nsnc45)sc23)cc1,[C][C][C][C][C][Branch1][Ring1][C][C][C][C][=C][C][=C][Branch2][=Branch2][Branch2][C][=C][C][=C][Branch2][=Branch1][Branch2][C][=C][C][=C][Branch2][Branch1][=N][C][S][C][Branch1][O][C][=C][C][=C][Branch1][C][C][S][Ring1][=Branch1][=C][C][=Ring1][O][C][=Branch1][C][=O][C][=C][Branch1][O][C][C][Branch1][Ring1][C][C][C][C][C][C][S][C][Branch1][O][C][C][Branch1][Ring1][C][C][C][C][C][C][=C][Ring2][Ring1][Branch1][C][Ring2][Ring1][#Branch2][=O][S][Ring2][Ring2][=Branch2][S][C][Ring2][Ring2][=C][=C][Branch2][Ring1][Ring2][C][=C][C][=C][Branch1][O][C][C][Branch1][Ring1][C][C][C][C][C][C][S][Ring1][=N][C][C][=C][Branch1][C][C][S][C][Ring2][=Branch1][Ring1][=Ring1][=Branch1][S][Ring2][=Branch1][Branch2].[C][C][C][C][C][C][C][=C][C][=C][Branch2][=N][=C][C][Branch1][P][C][=C][C][=C][Branch1][#Branch1][C][C][C][C][C][C][C][=C][Ring1][N][C][=C][C][=C][Branch2][=Branch1][C][C][=C][Ring1][=Branch1][C][S][C][C][=C][Branch2][Ring2][#Branch2][C][=C][C][=C][Branch2][Ring1][=Branch2][/C][=C][\S][C][=Branch1][Branch2][=C][Branch1][Ring1][C][#N][C][#N][N][Branch1][Branch1][C][C][C][C][C][Ring1][=C][=O][C][=N][S][N][=C][Ring2][Ring1][=Branch2][Ring1][Branch1][S][C][=Ring2][Ring1][=C][C][=Ring2][Ring1][P][Ring2][Branch1][Ring2][C][Branch1][P][C][=C][C][=C][Branch1][#Branch1][C][C][C][C][C][C][C][=C][Ring1][N][Branch1][P][C][=C][C][=C][Branch1][#Branch1][C][C][C][C][C][C][C][=C][Ring1][N][C][=C][Ring2][Branch1][S][S][C][C][=C][Branch2][Ring2][#Branch2][C][=C][C][=C][Branch2][Ring1][=Branch2][/C][=C][\S][C][=Branch1][Branch2][=C][Branch1][Ring1][C][#N][C][#N][N][Branch1][Branch1][C][C][C][C][C][Ring1][=C][=O][C][=N][S][N][=C][Ring2][Ring1][=Branch2][Ring1][Branch1][S][C][Ring2][Ring1][P][=Ring2][Ring1][=C][C][=C][Ring2][=Branch2][Ring2],{[$]CCCC(CC)Cc1ccc(-c2c3cc(-c4ccc(-c5sc(-c6ccc[$]s6)c6c5C(=O)c5c(CC(CC)CCCC)sc(CC(CC)CCCC)c5C6=O)s4)sc3c(-c3ccc(CC(CC)CCCC)s3)c3cc[$]sc23)s1}.CCCCCCc1ccc(C2(c3ccc(CCCCCC)cc3)c3cc4c(cc3-c3sc5cc(-c6ccc(/C=c7\sc(=C(C#N)C#N)n(CCCC)c7=O)c7nsnc67)sc5c32)C(c2ccc(CCCCCC)cc2)(c2ccc(CCCCCC)cc2)c2c-4sc3cc(-c4ccc(/C=c5\sc(=C(C#N)C#N)n(CCCC)c5=O)c5nsnc45)sc23)cc1
PBDB-T,ITBTR-C6,-5.297714285714285,-3.4170000000000003,-5.3,-3.71,1.0,CB,20.0,DIO,25.0,8.18,8.09,0.89,15.72,57.83,CCCCC(CC)Cc1ccc(-c2c3cc(-c4ccc(-c5sc(-c6ccc(C)s6)c6c5C(=O)c5c(CC(CC)CCCC)sc(CC(CC)CCCC)c5C6=O)s4)sc3c(-c3ccc(CC(CC)CCCC)s3)c3cc(C)sc23)s1.CCCCCCc1ccc(C2(c3ccc(CCCCCC)cc3)c3cc4c(cc3-c3sc5cc(-c6ccc(/C=c7\sc(=C(C#N)C#N)n(CCCCCC)c7=O)c7nsnc67)sc5c32)C(c2ccc(CCCCCC)cc2)(c2ccc(CCCCCC)cc2)c2c-4sc3cc(-c4ccc(/C=c5\sc(=C(C#N)C#N)n(CCCCCC)c5=O)c5nsnc45)sc23)cc1,[C][C][C][C][C][Branch1][Ring1][C][C][C][C][=C][C][=C][Branch2][=Branch2][Branch2][C][=C][C][=C][Branch2][=Branch1][Branch2][C][=C][C][=C][Branch2][Branch1][=N][C][S][C][Branch1][O][C][=C][C][=C][Branch1][C][C][S][Ring1][=Branch1][=C][C][=Ring1][O][C][=Branch1][C][=O][C][=C][Branch1][O][C][C][Branch1][Ring1][C][C][C][C][C][C][S][C][Branch1][O][C][C][Branch1][Ring1][C][C][C][C][C][C][=C][Ring2][Ring1][Branch1][C][Ring2][Ring1][#Branch2][=O][S][Ring2][Ring2][=Branch2][S][C][Ring2][Ring2][=C][=C][Branch2][Ring1][Ring2][C][=C][C][=C][Branch1][O][C][C][Branch1][Ring1][C][C][C][C][C][C][S][Ring1][=N][C][C][=C][Branch1][C][C][S][C][Ring2][=Branch1][Ring1][=Ring1][=Branch1][S][Ring2][=Branch1][Branch2].[C][C][C][C][C][C][C][=C][C][=C][Branch2][=C][C][C][Branch1][P][C][=C][C][=C][Branch1][#Branch1][C][C][C][C][C][C][C][=C][Ring1][N][C][=C][C][=C][Branch2][=Branch1][Ring2][C][=C][Ring1][=Branch1][C][S][C][C][=C][Branch2][Ring2][N][C][=C][C][=C][Branch2][Ring1][O][/C][=C][\S][C][=Branch1][Branch2][=C][Branch1][Ring1][C][#N][C][#N][N][Branch1][#Branch1][C][C][C][C][C][C][C][Ring1][S][=O][C][=N][S][N][=C][Ring2][Ring1][O][Ring1][Branch1][S][C][=Ring2][Ring1][S][C][=Ring2][Ring2][Ring1][Ring2][Branch1][=Branch1][C][Branch1][P][C][=C][C][=C][Branch1][#Branch1][C][C][C][C][C][C][C][=C][Ring1][N][Branch1][P][C][=C][C][=C][Branch1][#Branch1][C][C][C][C][C][C][C][=C][Ring1][N][C][=C][Ring2][=Branch1][C][S][C][C][=C][Branch2][Ring2][N][C][=C][C][=C][Branch2][Ring1][O][/C][=C][\S][C][=Branch1][Branch2][=C][Branch1][Ring1][C][#N][C][#N][N][Branch1][#Branch1][C][C][C][C][C][C][C][Ring1][S][=O][C][=N][S][N][=C][Ring2][Ring1][O][Ring1][Branch1][S][C][Ring2][Ring2][Ring1][=Ring2][Ring1][S][C][=C][Ring2][=Branch2][Branch2],{[$]CCCC(CC)Cc1ccc(-c2c3cc(-c4ccc(-c5sc(-c6ccc[$]s6)c6c5C(=O)c5c(CC(CC)CCCC)sc(CC(CC)CCCC)c5C6=O)s4)sc3c(-c3ccc(CC(CC)CCCC)s3)c3cc[$]sc23)s1}.CCCCCCc1ccc(C2(c3ccc(CCCCCC)cc3)c3cc4c(cc3-c3sc5cc(-c6ccc(/C=c7\sc(=C(C#N)C#N)n(CCCCCC)c7=O)c7nsnc67)sc5c32)C(c2ccc(CCCCCC)cc2)(c2ccc(CCCCCC)cc2)c2c-4sc3cc(-c4ccc(/C=c5\sc(=C(C#N)C#N)n(CCCCCC)c5=O)c5nsnc45)sc23)cc1
PBDB-T,ITBTR-C8,-5.297714285714285,-3.4170000000000003,-5.28,-3.7,1.0,CB,20.0,DIO,25.0,7.85,7.76,0.9,14.74,58.47,CCCCC(CC)Cc1ccc(-c2c3cc(-c4ccc(-c5sc(-c6ccc(C)s6)c6c5C(=O)c5c(CC(CC)CCCC)sc(CC(CC)CCCC)c5C6=O)s4)sc3c(-c3ccc(CC(CC)CCCC)s3)c3cc(C)sc23)s1.CCCCCCCCn1c(=C(C#N)C#N)s/c(=C\c2ccc(-c3cc4sc5c(c4s3)C(c3ccc(CCCCCC)cc3)(c3ccc(CCCCCC)cc3)c3cc4c(cc3-5)C(c3ccc(CCCCCC)cc3)(c3ccc(CCCCCC)cc3)c3c-4sc4cc(-c5ccc(/C=c6\sc(=C(C#N)C#N)n(CCCCCCCC)c6=O)c6nsnc56)sc34)c3nsnc23)c1=O,[C][C][C][C][C][Branch1][Ring1][C][C][C][C][=C][C][=C][Branch2][=Branch2][Branch2][C][=C][C][=C][Branch2][=Branch1][Branch2][C][=C][C][=C][Branch2][Branch1][=N][C][S][C][Branch1][O][C][=C][C][=C][Branch1][C][C][S][Ring1][=Branch1][=C][C][=Ring1][O][C][=Branch1][C][=O][C][=C][Branch1][O][C][C][Branch1][Ring1][C][C][C][C][C][C][S][C][Branch1][O][C][C][Branch1][Ring1][C][C][C][C][C][C][=C][Ring2][Ring1][Branch1][C][Ring2][Ring1][#Branch2][=O][S][Ring2][Ring2][=Branch2][S][C][Ring2][Ring2][=C][=C][Branch2][Ring1][Ring2][C][=C][C][=C][Branch1][O][C][C][Branch1][Ring1][C][C][C][C][C][C][S][Ring1][=N][C][C][=C][Branch1][C][C][S][C][Ring2][=Branch1][Ring1][=Ring1][=Branch1][S][Ring2][=Branch1][Branch2].[C][C][C][C][C][C][C][C][N][C][=Branch1][Branch2][=C][Branch1][Ring1][C][#N][C][#N][S][/C][=Branch2][=N][#Branch2][=C][\C][=C][C][=C][Branch2][N][Branch2][C][=C][C][S][C][=C][Branch1][#Branch1][C][=Ring1][Branch1][S][Ring1][Branch2][C][Branch1][P][C][=C][C][=C][Branch1][#Branch1][C][C][C][C][C][C][C][=C][Ring1][N][Branch1][P][C][=C][C][=C][Branch1][#Branch1][C][C][C][C][C][C][C][=C][Ring1][N][C][=C][C][=C][Branch1][Branch2][C][=C][Ring1][=Branch1][Ring2][Ring2][Ring1][C][Branch1][P][C][=C][C][=C][Branch1][#Branch1][C][C][C][C][C][C][C][=C][Ring1][N][Branch1][P][C][=C][C][=C][Branch1][#Branch1][C][C][C][C][C][C][C][=C][Ring1][N][C][=C][Ring2][Ring1][#C][S][C][C][=C][Branch2][Ring2][#C][C][=C][C][=C][Branch2][Ring1][=C][/C][=C][\S][C][=Branch1][Branch2][=C][Branch1][Ring1][C][#N][C][#N][N][Branch1][=Branch2][C][C][C][C][C][C][C][C][C][Ring2][Ring1][C][=O][C][=N][S][N][=C][Ring2][Ring1][=N][Ring1][Branch1][S][C][Ring2][Ring2][Branch1][=Ring2][Ring2][C][C][=N][S][N][=C][Ring2][Branch2][=C][Ring1][Branch1][C][Ring2][=Branch2][=Branch2][=O],{[$]CCCC(CC)Cc1ccc(-c2c3cc(-c4ccc(-c5sc(-c6ccc[$]s6)c6c5C(=O)c5c(CC(CC)CCCC)sc(CC(CC)CCCC)c5C6=O)s4)sc3c(-c3ccc(CC(CC)CCCC)s3)c3cc[$]sc23)s1}.CCCCCCCCn1c(=C(C#N)C#N)s/c(=C\c2ccc(-c3cc4sc5c(c4s3)C(c3ccc(CCCCCC)cc3)(c3ccc(CCCCCC)cc3)c3cc4c(cc3-5)C(c3ccc(CCCCCC)cc3)(c3ccc(CCCCCC)cc3)c3c-4sc4cc(-c5ccc(/C=c6\sc(=C(C#N)C#N)n(CCCCCCCC)c6=O)c6nsnc56)sc34)c3nsnc23)c1=O