Donor,Acceptor,HOMO_D_eV,LUMO_D_eV,HOMO_A_eV,LUMO_A_eV,D_A_ratio_m_m,solvent,total_solids_conc_mg_mL,solvent_additive,annealing_temperature,PCE_percent,calc_PCE_percent,Voc_V,Jsc_mA_cm_pow_neg2,FF_percent,DA_SMILES,DA_SELFIES,DA_BigSMILES
J71,ZITI,-5.353333333333333,-3.4318181818181825,-5.550000000000001,-3.78,1.0,CF,17.0,_,120.0,13.04,12.91,0.93,20.24,68.61,CCCCCCCCC(CCCCCC)Cn1nc2c(-c3ccc(C)s3)c(F)c(F)c(-c3ccc(-c4cc5c(-c6ccc([Si](CCC)(CCC)CCC)s6)c6sc(C)cc6c(-c6ccc([Si](CCC)(CCC)CCC)s6)c5s4)s3)c2n1.CCCCCCCCC(CCCCCC)CC1(CC(CCCCCC)CCCCCCCC)c2cc3c(cc2C2C1c1cc4c(cc1C2(CC(CCCCCC)CCCCCCCC)CC(CCCCCC)CCCCCCCC)-c1sc(/C=C2\C(=O)c5cc(F)ccc5C2=C(C#N)C#N)cc1C4)Cc1cc(/C=C2\C(=O)c4cc(F)ccc4C2=C(C#N)C#N)sc1-3,[C][C][C][C][C][C][C][C][C][Branch1][#Branch1][C][C][C][C][C][C][C][N][N][=C][C][Branch1][O][C][=C][C][=C][Branch1][C][C][S][Ring1][=Branch1][=C][Branch1][C][F][C][Branch1][C][F][=C][Branch2][#Branch1][#Branch1][C][=C][C][=C][Branch2][=Branch1][N][C][=C][C][=C][Branch2][Ring1][Branch2][C][=C][C][=C][Branch1][#C][Si][Branch1][Ring2][C][C][C][Branch1][Ring2][C][C][C][C][C][C][S][Ring1][#C][C][S][C][Branch1][C][C][=C][C][=Ring1][=Branch1][C][Branch2][Ring1][Branch2][C][=C][C][=C][Branch1][#C][Si][Branch1][Ring2][C][C][C][Branch1][Ring2][C][C][C][C][C][C][S][Ring1][#C][=C][Ring2][Ring2][Branch2][S][Ring2][Ring2][O][S][Ring2][Ring2][S][C][Ring2][Branch1][=C][=N][Ring2][Branch1][P].[C][C][C][C][C][C][C][C][C][Branch1][#Branch1][C][C][C][C][C][C][C][C][Branch2][Ring1][Ring1][C][C][Branch1][#Branch1][C][C][C][C][C][C][C][C][C][C][C][C][C][C][C][=C][C][=C][Branch2][Branch2][=Branch2][C][=C][Ring1][=Branch1][C][C][Ring2][Ring1][=Branch2][C][=C][C][=C][Branch2][Ring2][#C][C][=C][Ring1][=Branch1][C][Ring1][=Branch2][Branch2][Ring1][Ring1][C][C][Branch1][#Branch1][C][C][C][C][C][C][C][C][C][C][C][C][C][C][C][C][Branch1][#Branch1][C][C][C][C][C][C][C][C][C][C][C][C][C][C][C][S][C][Branch2][Ring1][N][/C][=C][\C][=Branch1][C][=O][C][=C][C][Branch1][C][F][=C][C][=C][Ring1][#Branch1][C][Ring1][O][=C][Branch1][Ring1][C][#N][C][#N][=C][C][=Ring2][Ring1][=Branch1][C][Ring2][Branch1][N][C][C][C][=C][Branch2][Ring1][N][/C][=C][\C][=Branch1][C][=O][C][=C][C][Branch1][C][F][=C][C][=C][Ring1][#Branch1][C][Ring1][O][=C][Branch1][Ring1][C][#N][C][#N][S][C][=Ring2][Ring1][=Branch1][Ring2][#Branch1][O],{[$]CCCCCCCC(CCCCCC)Cn1nc2c(-c3ccc[$]s3)c(F)c(F)c(-c3ccc(-c4cc5c(-c6ccc([Si](CCC)(CCC)CCC)s6)c6sc[$]cc6c(-c6ccc([Si](CCC)(CCC)CCC)s6)c5s4)s3)c2n1}.CCCCCCCCC(CCCCCC)CC1(CC(CCCCCC)CCCCCCCC)c2cc3c(cc2C2C1c1cc4c(cc1C2(CC(CCCCCC)CCCCCCCC)CC(CCCCCC)CCCCCCCC)-c1sc(/C=C2\C(=O)c5cc(F)ccc5C2=C(C#N)C#N)cc1C4)Cc1cc(/C=C2\C(=O)c4cc(F)ccc4C2=C(C#N)C#N)sc1-3
P3HT,EH-IDTBR,-5.057777777777777,-2.989444444444445,-5.58,-3.9,1.0,CB,24.0,_,130.0,6.0,5.7,0.76,12.1,62.0,CCCCCCc1cc(-c2sc(-c3sc(-c4sc(C)cc4CCCCCC)cc3CCCCCC)cc2CCCCCC)sc1C.CCCCC(CC)CC1(CC(CC)CCCC)c2cc3c(cc2-c2sc(-c4ccc(/C=C5\SC(=S)N(CC)C5=O)c5nsnc45)cc21)C(CC(CC)CCCC)(CC(CC)CCCC)c1cc(-c2ccc(/C=C4\SC(=S)N(CC)C4=O)c4nsnc24)sc1-3,[C][C][C][C][C][C][C][C][=C][Branch2][Ring2][P][C][S][C][Branch2][Ring1][S][C][S][C][Branch1][P][C][S][C][Branch1][C][C][=C][C][=Ring1][=Branch1][C][C][C][C][C][C][=C][C][=Ring1][P][C][C][C][C][C][C][=C][C][=Ring2][Ring1][N][C][C][C][C][C][C][S][C][=Ring2][Ring2][#Branch1][C].[C][C][C][C][C][Branch1][Ring1][C][C][C][C][Branch1][O][C][C][Branch1][Ring1][C][C][C][C][C][C][C][=C][C][=C][Branch2][Branch1][Ring1][C][=C][Ring1][=Branch1][C][S][C][Branch2][Ring1][P][C][=C][C][=C][Branch1][P][/C][=C][\S][C][=Branch1][C][=S][N][Branch1][Ring1][C][C][C][Ring1][Branch2][=O][C][=N][S][N][=C][Ring2][Ring1][Ring1][Ring1][Branch1][=C][C][=Ring2][Ring1][Branch2][Ring2][Ring2][#Branch1][C][Branch1][O][C][C][Branch1][Ring1][C][C][C][C][C][C][Branch1][O][C][C][Branch1][Ring1][C][C][C][C][C][C][C][C][=C][Branch2][Ring1][P][C][=C][C][=C][Branch1][P][/C][=C][\S][C][=Branch1][C][=S][N][Branch1][Ring1][C][C][C][Ring1][Branch2][=O][C][=N][S][N][=C][Ring2][Ring1][Ring1][Ring1][Branch1][S][C][=Ring2][Ring1][Branch2][Ring2][=Branch1][Branch1],{[$]CCCCCc1cc(-c2sc(-c3sc(-c4sc[$]cc4CCCCCC)cc3CCCCCC)cc2CCCCCC)sc1C}.CCCCC(CC)CC1(CC(CC)CCCC)c2cc3c(cc2-c2sc(-c4ccc(/C=C5\SC(=S)N(CC)C5=O)c5nsnc45)cc21)C(CC(CC)CCCC)(CC(CC)CCCC)c1cc(-c2ccc(/C=C4\SC(=S)N(CC)C4=O)c4nsnc24)sc1-3
P3HT,FBR,-5.057777777777777,-2.989444444444445,-5.786666666666666,-3.673333333333333,1.0,CF:DCB (80:20),16.0,_,110.0,4.11,4.11,0.82,7.95,63.0,CCCCCCc1cc(-c2sc(-c3sc(-c4sc(C)cc4CCCCCC)cc3CCCCCC)cc2CCCCCC)sc1C.CCCCCCCCC1(CCCCCCCC)c2cc(-c3ccc(/C=C4\SC(=S)N(CC)C4=O)c4nsnc34)ccc2-c2ccc(-c3ccc(/C=C4\SC(=S)N(CC)C4=O)c4nsnc34)cc21,[C][C][C][C][C][C][C][C][=C][Branch2][Ring2][P][C][S][C][Branch2][Ring1][S][C][S][C][Branch1][P][C][S][C][Branch1][C][C][=C][C][=Ring1][=Branch1][C][C][C][C][C][C][=C][C][=Ring1][P][C][C][C][C][C][C][=C][C][=Ring2][Ring1][N][C][C][C][C][C][C][S][C][=Ring2][Ring2][#Branch1][C].[C][C][C][C][C][C][C][C][C][Branch1][=Branch2][C][C][C][C][C][C][C][C][C][=C][C][Branch2][Ring1][P][C][=C][C][=C][Branch1][P][/C][=C][\S][C][=Branch1][C][=S][N][Branch1][Ring1][C][C][C][Ring1][Branch2][=O][C][=N][S][N][=C][Ring2][Ring1][Ring1][Ring1][Branch1][=C][C][=C][Ring2][Ring1][=Branch2][C][=C][C][=C][Branch2][Ring1][P][C][=C][C][=C][Branch1][P][/C][=C][\S][C][=Branch1][C][=S][N][Branch1][Ring1][C][C][C][Ring1][Branch2][=O][C][=N][S][N][=C][Ring2][Ring1][Ring1][Ring1][Branch1][C][=C][Ring2][Ring1][=Branch2][Ring2][Branch1][O],{[$]CCCCCc1cc(-c2sc(-c3sc(-c4sc[$]cc4CCCCCC)cc3CCCCCC)cc2CCCCCC)sc1C}.CCCCCCCCC1(CCCCCCCC)c2cc(-c3ccc(/C=C4\SC(=S)N(CC)C4=O)c4nsnc34)ccc2-c2ccc(-c3ccc(/C=C4\SC(=S)N(CC)C4=O)c4nsnc34)cc21
PBDB-T,IDTCN,-5.297714285714285,-3.4170000000000003,-5.890000000000001,-3.93,1.0,CB,20.0,DIO,110.0,6.4,6.4,0.85,12.06,62.48,CCCCC(CC)Cc1ccc(-c2c3cc(-c4ccc(-c5sc(-c6ccc(C)s6)c6c5C(=O)c5c(CC(CC)CCCC)sc(CC(CC)CCCC)c5C6=O)s4)sc3c(-c3ccc(CC(CC)CCCC)s3)c3cc(C)sc23)s1.CCCCCCc1ccc(C2(c3ccc(CCCCCC)cc3)c3cc4c(cc3-c3sc(/C=C5\C(=O)c6cscc6C5=C(C#N)C#N)cc32)C(c2ccc(CCCCCC)cc2)(c2ccc(CCCCCC)cc2)c2cc(/C=C3\C(=O)c5cscc5C3=C(C#N)C#N)sc2-4)cc1,[C][C][C][C][C][Branch1][Ring1][C][C][C][C][=C][C][=C][Branch2][=Branch2][Branch2][C][=C][C][=C][Branch2][=Branch1][Branch2][C][=C][C][=C][Branch2][Branch1][=N][C][S][C][Branch1][O][C][=C][C][=C][Branch1][C][C][S][Ring1][=Branch1][=C][C][=Ring1][O][C][=Branch1][C][=O][C][=C][Branch1][O][C][C][Branch1][Ring1][C][C][C][C][C][C][S][C][Branch1][O][C][C][Branch1][Ring1][C][C][C][C][C][C][=C][Ring2][Ring1][Branch1][C][Ring2][Ring1][#Branch2][=O][S][Ring2][Ring2][=Branch2][S][C][Ring2][Ring2][=C][=C][Branch2][Ring1][Ring2][C][=C][C][=C][Branch1][O][C][C][Branch1][Ring1][C][C][C][C][C][C][S][Ring1][=N][C][C][=C][Branch1][C][C][S][C][Ring2][=Branch1][Ring1][=Ring1][=Branch1][S][Ring2][=Branch1][Branch2].[C][C][C][C][C][C][C][=C][C][=C][Branch2][#Branch2][=C][C][Branch1][P][C][=C][C][=C][Branch1][#Branch1][C][C][C][C][C][C][C][=C][Ring1][N][C][=C][C][=C][Branch2][Ring2][#Branch2][C][=C][Ring1][=Branch1][C][S][C][Branch2][Ring1][Branch2][/C][=C][\C][=Branch1][C][=O][C][=C][S][C][=C][Ring1][Branch1][C][Ring1][=Branch2][=C][Branch1][Ring1][C][#N][C][#N][=C][C][=Ring2][Ring1][Ring2][Ring2][Ring2][#Branch1][C][Branch1][P][C][=C][C][=C][Branch1][#Branch1][C][C][C][C][C][C][C][=C][Ring1][N][Branch1][P][C][=C][C][=C][Branch1][#Branch1][C][C][C][C][C][C][C][=C][Ring1][N][C][C][=C][Branch2][Ring1][Branch2][/C][=C][\C][=Branch1][C][=O][C][=C][S][C][=C][Ring1][Branch1][C][Ring1][=Branch2][=C][Branch1][Ring1][C][#N][C][#N][S][C][=Ring2][Ring1][Ring2][Ring2][=Branch1][Branch1][C][=C][Ring2][#Branch1][#Branch2],{[$]CCCC(CC)Cc1ccc(-c2c3cc(-c4ccc(-c5sc(-c6ccc[$]s6)c6c5C(=O)c5c(CC(CC)CCCC)sc(CC(CC)CCCC)c5C6=O)s4)sc3c(-c3ccc(CC(CC)CCCC)s3)c3cc[$]sc23)s1}.CCCCCCc1ccc(C2(c3ccc(CCCCCC)cc3)c3cc4c(cc3-c3sc(/C=C5\C(=O)c6cscc6C5=C(C#N)C#N)cc32)C(c2ccc(CCCCCC)cc2)(c2ccc(CCCCCC)cc2)c2cc(/C=C3\C(=O)c5cscc5C3=C(C#N)C#N)sc2-4)cc1
P3HT,NAI-FN-NAI(BO),-5.057777777777777,-2.989444444444445,-6.07,-3.96,1.0,CB,20.0,_,25.0,3.8,3.93,0.9,9.3,47.0,CCCCCCc1cc(-c2sc(-c3sc(-c4sc(C)cc4CCCCCC)cc3CCCCCC)cc2CCCCCC)sc1C.CCCCCCC(CCCC)CSN1C(=O)c2cccc3c(-c4ccc(-c5ccc6c(c5)C(=O)c5cc(-c7ccc(-c8ccc9c%10c(cccc8%10)C(=O)N(SCC(CCCC)CCCCCC)C9=O)s7)ccc5-6)s4)ccc(c23)C1=O,[C][C][C][C][C][C][C][C][=C][Branch2][Ring2][P][C][S][C][Branch2][Ring1][S][C][S][C][Branch1][P][C][S][C][Branch1][C][C][=C][C][=Ring1][=Branch1][C][C][C][C][C][C][=C][C][=Ring1][P][C][C][C][C][C][C][=C][C][=Ring2][Ring1][N][C][C][C][C][C][C][S][C][=Ring2][Ring2][#Branch1][C].[C][C][C][C][C][C][C][Branch1][Branch1][C][C][C][C][C][S][N][C][=Branch1][C][=O][C][=C][C][=C][C][=C][Branch2][#Branch1][#C][C][=C][C][=C][Branch2][#Branch1][Ring2][C][=C][C][=C][C][=Branch1][Ring2][=C][Ring1][=Branch1][C][=Branch1][C][=O][C][=C][C][Branch2][Branch1][#Branch1][C][=C][C][=C][Branch2][Ring2][N][C][=C][C][=C][C][=C][Branch1][=Branch2][C][=C][C][=C][Ring1][#Branch2][Ring1][=Branch1][C][=Branch1][C][=O][N][Branch1][S][S][C][C][Branch1][Branch1][C][C][C][C][C][C][C][C][C][C][C][Ring2][Ring1][Branch2][=O][S][Ring2][Ring1][P][=C][C][=C][Ring2][Ring2][#Branch1][Ring2][Ring2][N][S][Ring2][Branch1][Ring2][C][=C][C][=Branch1][Branch2][=C][Ring2][Branch1][=C][Ring2][Branch1][#Branch2][C][Ring2][=Branch1][C][=O],{[$]CCCCCc1cc(-c2sc(-c3sc(-c4sc[$]cc4CCCCCC)cc3CCCCCC)cc2CCCCCC)sc1C}.CCCCCCC(CCCC)CSN1C(=O)c2cccc3c(-c4ccc(-c5ccc6c(c5)C(=O)c5cc(-c7ccc(-c8ccc9c%10c(cccc8%10)C(=O)N(SCC(CCCC)CCCCCC)C9=O)s7)ccc5-6)s4)ccc(c23)C1=O
PTzBI,ITIC,-5.34,-3.46,-5.574146341463415,-3.915,1.0,CB,20.0,DBE,130.0,10.24,10.24,0.87,18.29,64.34,CCCCCCCCN1C(=O)c2c(c(-c3ccc(-c4cc5c(-c6ccc(CC(CC)CCCC)s6)c6sc(C)cc6c(-c6ccc(CC(CC)CCCC)s6)c5s4)s3)c3nn(CCCCCCCC)nc3c2-c2ccc(C)s2)C1=O.CCCCCCc1ccc(C2(c3ccc(CCCCCC)cc3)c3cc4c(cc3-c3sc5cc(/C=C6\C(=O)c7ccccc7C6=C(C#N)C#N)sc5c32)C(c2ccc(CCCCCC)cc2)(c2ccc(CCCCCC)cc2)c2c-4sc3cc(/C=C4\C(=O)c5ccccc5C4=C(C#N)C#N)sc23)cc1,[C][C][C][C][C][C][C][C][N][C][=Branch1][C][=O][C][C][=Branch2][=Branch2][C][=C][Branch2][=Branch1][#C][C][=C][C][=C][Branch2][=Branch1][Ring2][C][=C][C][=C][Branch2][Ring1][Ring2][C][=C][C][=C][Branch1][O][C][C][Branch1][Ring1][C][C][C][C][C][C][S][Ring1][=N][C][S][C][Branch1][C][C][=C][C][=Ring1][=Branch1][C][Branch2][Ring1][Ring2][C][=C][C][=C][Branch1][O][C][C][Branch1][Ring1][C][C][C][C][C][C][S][Ring1][=N][=C][Ring2][Ring2][Ring2][S][Ring2][Ring2][#Branch1][S][Ring2][Ring2][N][C][=N][N][Branch1][=Branch2][C][C][C][C][C][C][C][C][N][=C][Ring1][=N][C][=Ring2][Branch1][=N][C][=C][C][=C][Branch1][C][C][S][Ring1][=Branch1][C][Ring2][=Branch1][#Branch1][=O].[C][C][C][C][C][C][C][=C][C][=C][Branch2][O][N][C][Branch1][P][C][=C][C][=C][Branch1][#Branch1][C][C][C][C][C][C][C][=C][Ring1][N][C][=C][C][=C][Branch2][Ring2][P][C][=C][Ring1][=Branch1][C][S][C][C][=C][Branch2][Ring1][=Branch2][/C][=C][\C][=Branch1][C][=O][C][=C][C][=C][C][=C][Ring1][=Branch1][C][Ring1][#Branch2][=C][Branch1][Ring1][C][#N][C][#N][S][C][=Ring2][Ring1][Branch1][C][=Ring2][Ring1][Branch2][Ring2][Ring2][O][C][Branch1][P][C][=C][C][=C][Branch1][#Branch1][C][C][C][C][C][C][C][=C][Ring1][N][Branch1][P][C][=C][C][=C][Branch1][#Branch1][C][C][C][C][C][C][C][=C][Ring1][N][C][=C][Ring2][Branch1][#Branch1][S][C][C][=C][Branch2][Ring1][=Branch2][/C][=C][\C][=Branch1][C][=O][C][=C][C][=C][C][=C][Ring1][=Branch1][C][Ring1][#Branch2][=C][Branch1][Ring1][C][#N][C][#N][S][C][Ring2][Ring1][Branch2][=Ring2][Ring1][Branch1][C][=C][Ring2][Branch2][C],{[$]CCCCCCCN1C(=O)c2c(c(-c3ccc(-c4cc5c(-c6ccc(CC(CC)CCCC)s6)c6sc[$]cc6c(-c6ccc(CC(CC)CCCC)s6)c5s4)s3)c3nn(CCCCCCCC)nc3c2-c2ccc[$]s2)C1=O}.CCCCCCc1ccc(C2(c3ccc(CCCCCC)cc3)c3cc4c(cc3-c3sc5cc(/C=C6\C(=O)c7ccccc7C6=C(C#N)C#N)sc5c32)C(c2ccc(CCCCCC)cc2)(c2ccc(CCCCCC)cc2)c2c-4sc3cc(/C=C4\C(=O)c5ccccc5C4=C(C#N)C#N)sc23)cc1
P3HT,NAI-FN-NAI(HD),-5.057777777777777,-2.989444444444445,-6.06,-3.98,1.0,CB,20.0,_,25.0,2.8,2.86,0.88,7.55,43.0,CCCCCCc1cc(-c2sc(-c3sc(-c4sc(C)cc4CCCCCC)cc3CCCCCC)cc2CCCCCC)sc1C.CCCCCCCCC(CCCCCC)CN1C(=O)c2cccc3c(-c4ccc(-c5ccc6c(c5)C(=O)c5cc(-c7ccc(-c8ccc9c%10c(cccc8%10)C(=O)N(CC(CCCCCC)CCCCCCCC)C9=O)s7)ccc5-6)s4)ccc(c23)C1=O,[C][C][C][C][C][C][C][C][=C][Branch2][Ring2][P][C][S][C][Branch2][Ring1][S][C][S][C][Branch1][P][C][S][C][Branch1][C][C][=C][C][=Ring1][=Branch1][C][C][C][C][C][C][=C][C][=Ring1][P][C][C][C][C][C][C][=C][C][=Ring2][Ring1][N][C][C][C][C][C][C][S][C][=Ring2][Ring2][#Branch1][C].[C][C][C][C][C][C][C][C][C][Branch1][#Branch1][C][C][C][C][C][C][C][N][C][=Branch1][C][=O][C][=C][C][=C][C][=C][Branch2][Branch2][Ring1][C][=C][C][=C][Branch2][#Branch1][Branch2][C][=C][C][=C][C][=Branch1][Ring2][=C][Ring1][=Branch1][C][=Branch1][C][=O][C][=C][C][Branch2][Branch1][O][C][=C][C][=C][Branch2][Ring2][S][C][=C][C][=C][C][=C][Branch1][=Branch2][C][=C][C][=C][Ring1][#Branch2][Ring1][=Branch1][C][=Branch1][C][=O][N][Branch2][Ring1][Ring1][C][C][Branch1][#Branch1][C][C][C][C][C][C][C][C][C][C][C][C][C][C][C][Ring2][Ring1][O][=O][S][Ring2][Ring2][Ring2][=C][C][=C][Ring2][Ring2][#Branch2][Ring2][Ring2][#C][S][Ring2][Branch1][#Branch1][C][=C][C][=Branch1][Branch2][=C][Ring2][Branch1][P][Ring2][Branch1][=N][C][Ring2][=Branch1][Branch1][=O],{[$]CCCCCc1cc(-c2sc(-c3sc(-c4sc[$]cc4CCCCCC)cc3CCCCCC)cc2CCCCCC)sc1C}.CCCCCCCCC(CCCCCC)CN1C(=O)c2cccc3c(-c4ccc(-c5ccc6c(c5)C(=O)c5cc(-c7ccc(-c8ccc9c%10c(cccc8%10)C(=O)N(CC(CCCCCC)CCCCCCCC)C9=O)s7)ccc5-6)s4)ccc(c23)C1=O
P3HT,NAI-FCN-NAI(BO),-5.057777777777777,-2.989444444444445,-6.14,-4.21,1.0,CB,20.0,_,25.0,0.8,0.74,0.58,3.25,39.0,CCCCCCc1cc(-c2sc(-c3sc(-c4sc(C)cc4CCCCCC)cc3CCCCCC)cc2CCCCCC)sc1C.CCCCCCC(CCCC)CSN1C(=O)c2cccc3c(-c4ccc(-c5ccc6c(c5)C(=C(C#N)C#N)c5cc(-c7ccc(-c8ccc9c%10c(cccc8%10)C(=O)N(SCC(CCCC)CCCCCC)C9=O)s7)ccc5-6)s4)ccc(c23)C1=O,[C][C][C][C][C][C][C][C][=C][Branch2][Ring2][P][C][S][C][Branch2][Ring1][S][C][S][C][Branch1][P][C][S][C][Branch1][C][C][=C][C][=Ring1][=Branch1][C][C][C][C][C][C][=C][C][=Ring1][P][C][C][C][C][C][C][=C][C][=Ring2][Ring1][N][C][C][C][C][C][C][S][C][=Ring2][Ring2][#Branch1][C].[C][C][C][C][C][C][C][Branch1][Branch1][C][C][C][C][C][S][N][C][=Branch1][C][=O][C][=C][C][=C][C][=C][Branch2][Branch2][Branch1][C][=C][C][=C][Branch2][#Branch1][#Branch2][C][=C][C][=C][C][=Branch1][Ring2][=C][Ring1][=Branch1][C][=Branch1][Branch2][=C][Branch1][Ring1][C][#N][C][#N][C][=C][C][Branch2][Branch1][#Branch1][C][=C][C][=C][Branch2][Ring2][N][C][=C][C][=C][C][=C][Branch1][=Branch2][C][=C][C][=C][Ring1][#Branch2][Ring1][=Branch1][C][=Branch1][C][=O][N][Branch1][S][S][C][C][Branch1][Branch1][C][C][C][C][C][C][C][C][C][C][C][Ring2][Ring1][Branch2][=O][S][Ring2][Ring1][P][=C][C][=C][Ring2][Ring2][#Branch1][Ring2][Ring2][S][S][Ring2][Branch1][Branch2][C][=C][C][=Branch1][Branch2][=C][Ring2][=Branch1][C][Ring2][Branch1][=C][C][Ring2][=Branch1][=Branch1][=O],{[$]CCCCCc1cc(-c2sc(-c3sc(-c4sc[$]cc4CCCCCC)cc3CCCCCC)cc2CCCCCC)sc1C}.CCCCCCC(CCCC)CSN1C(=O)c2cccc3c(-c4ccc(-c5ccc6c(c5)C(=C(C#N)C#N)c5cc(-c7ccc(-c8ccc9c%10c(cccc8%10)C(=O)N(SCC(CCCC)CCCCCC)C9=O)s7)ccc5-6)s4)ccc(c23)C1=O
FTAZ,INIC,-5.43,-3.3200000000000003,-5.45,-3.88,0.667,CF,12.5,DIO,25.0,7.7,7.49,0.957,13.51,57.9,CCCCCCC(CCCC)CSc1c2cc(-c3ccc(-c4c(F)c(F)c(-c5ccc(C)s5)c5nn(SCC(CCCC)CCCCCC)nc45)s3)sc2c(SCC(CCCC)CCCCCC)c2cc(C)sc12.CCCCCCc1ccc(C2(c3ccc(CCCCCC)cc3)c3cc4c(cc3-c3sc5c(sc6cc(/C=C7\C(=O)c8ccccc8C7=C(C#N)C#N)sc65)c32)C(c2ccc(CCCCCC)cc2)(c2ccc(CCCCCC)cc2)c2c-4sc3c2sc2cc(/C=C4\C(=O)c5ccccc5C4=C(C#N)C#N)sc23)cc1,[C][C][C][C][C][C][C][Branch1][Branch1][C][C][C][C][C][S][C][=C][C][=C][Branch2][Branch1][=C][C][=C][C][=C][Branch2][Branch1][Ring1][C][=C][Branch1][C][F][C][Branch1][C][F][=C][Branch1][O][C][=C][C][=C][Branch1][C][C][S][Ring1][=Branch1][C][=N][N][Branch1][S][S][C][C][Branch1][Branch1][C][C][C][C][C][C][C][C][C][C][N][=C][Ring2][Ring1][=C][Ring2][Ring1][C][S][Ring2][Ring2][Ring1][S][C][Ring2][Ring2][Branch2][=C][Branch1][S][S][C][C][Branch1][Branch1][C][C][C][C][C][C][C][C][C][C][C][C][=C][Branch1][C][C][S][C][Ring2][Branch1][=N][=Ring1][=Branch1].[C][C][C][C][C][C][C][=C][C][=C][Branch2][N][#Branch2][C][Branch1][P][C][=C][C][=C][Branch1][#Branch1][C][C][C][C][C][C][C][=C][Ring1][N][C][=C][C][=C][Branch2][Branch1][#Branch2][C][=C][Ring1][=Branch1][C][S][C][=C][Branch2][Ring2][Branch2][S][C][C][=C][Branch2][Ring1][=Branch2][/C][=C][\C][=Branch1][C][=O][C][=C][C][=C][C][=C][Ring1][=Branch1][C][Ring1][#Branch2][=C][Branch1][Ring1][C][#N][C][#N][S][C][=Ring2][Ring1][Branch1][Ring2][Ring1][Branch2][C][=Ring2][Ring1][O][Ring2][Ring2][=C][C][Branch1][P][C][=C][C][=C][Branch1][#Branch1][C][C][C][C][C][C][C][=C][Ring1][N][Branch1][P][C][=C][C][=C][Branch1][#Branch1][C][C][C][C][C][C][C][=C][Ring1][N][C][=C][Ring2][Branch1][#Branch2][S][C][=C][Ring1][Branch1][S][C][C][=C][Branch2][Ring1][=Branch2][/C][=C][\C][=Branch1][C][=O][C][=C][C][=C][C][=C][Ring1][=Branch1][C][Ring1][#Branch2][=C][Branch1][Ring1][C][#N][C][#N][S][C][=Ring2][Ring1][Branch1][Ring2][Ring1][Branch2][C][=C][Ring2][Branch2][Branch2],{[$]CCCCCC(CCCC)CSc1c2cc(-c3ccc(-c4c(F)c(F)c(-c5ccc[$]s5)c5nn(SCC(CCCC)CCCCCC)nc45)s3)sc2c(SCC(CCCC)CCCCCC)c2cc[$]sc12}.CCCCCCc1ccc(C2(c3ccc(CCCCCC)cc3)c3cc4c(cc3-c3sc5c(sc6cc(/C=C7\C(=O)c8ccccc8C7=C(C#N)C#N)sc65)c32)C(c2ccc(CCCCCC)cc2)(c2ccc(CCCCCC)cc2)c2c-4sc3c2sc2cc(/C=C4\C(=O)c5ccccc5C4=C(C#N)C#N)sc23)cc1
FTAZ,INIC1,-5.43,-3.3200000000000003,-5.54,-3.97,0.667,CF,12.5,DIO,25.0,10.1,9.93,0.929,16.63,64.3,CCCCCCC(CCCC)CSc1c2cc(-c3ccc(-c4c(F)c(F)c(-c5ccc(C)s5)c5nn(SCC(CCCC)CCCCCC)nc45)s3)sc2c(SCC(CCCC)CCCCCC)c2cc(C)sc12.CCCCCCc1ccc(C2(c3ccc(CCCCCC)cc3)c3cc4c(cc3-c3sc5c(sc6cc(/C=C7\C(=O)c8c(F)cccc8C7=C(C#N)C#N)sc65)c32)C(c2ccc(CCCCCC)cc2)(c2ccc(CCCCCC)cc2)c2c-4sc3c2sc2cc(/C=C4\C(=O)c5c(F)cccc5C4=C(C#N)C#N)sc23)cc1,[C][C][C][C][C][C][C][Branch1][Branch1][C][C][C][C][C][S][C][=C][C][=C][Branch2][Branch1][=C][C][=C][C][=C][Branch2][Branch1][Ring1][C][=C][Branch1][C][F][C][Branch1][C][F][=C][Branch1][O][C][=C][C][=C][Branch1][C][C][S][Ring1][=Branch1][C][=N][N][Branch1][S][S][C][C][Branch1][Branch1][C][C][C][C][C][C][C][C][C][C][N][=C][Ring2][Ring1][=C][Ring2][Ring1][C][S][Ring2][Ring2][Ring1][S][C][Ring2][Ring2][Branch2][=C][Branch1][S][S][C][C][Branch1][Branch1][C][C][C][C][C][C][C][C][C][C][C][C][=C][Branch1][C][C][S][C][Ring2][Branch1][=N][=Ring1][=Branch1].[C][C][C][C][C][C][C][=C][C][=C][Branch2][N][S][C][Branch1][P][C][=C][C][=C][Branch1][#Branch1][C][C][C][C][C][C][C][=C][Ring1][N][C][=C][C][=C][Branch2][Branch1][=N][C][=C][Ring1][=Branch1][C][S][C][=C][Branch2][Ring2][O][S][C][C][=C][Branch2][Ring1][N][/C][=C][\C][=Branch1][C][=O][C][=C][Branch1][C][F][C][=C][C][=C][Ring1][#Branch1][C][Ring1][O][=C][Branch1][Ring1][C][#N][C][#N][S][C][=Ring2][Ring1][=Branch1][Ring2][Ring1][=Branch2][C][=Ring2][Ring1][N][Ring2][Ring2][#C][C][Branch1][P][C][=C][C][=C][Branch1][#Branch1][C][C][C][C][C][C][C][=C][Ring1][N][Branch1][P][C][=C][C][=C][Branch1][#Branch1][C][C][C][C][C][C][C][=C][Ring1][N][C][=C][Ring2][Branch1][O][S][C][=C][Ring1][Branch1][S][C][C][=C][Branch2][Ring1][N][/C][=C][\C][=Branch1][C][=O][C][=C][Branch1][C][F][C][=C][C][=C][Ring1][#Branch1][C][Ring1][O][=C][Branch1][Ring1][C][#N][C][#N][S][C][=Ring2][Ring1][=Branch1][Ring2][Ring1][=Branch2][C][=C][Ring2][Branch2][#Branch2],{[$]CCCCCC(CCCC)CSc1c2cc(-c3ccc(-c4c(F)c(F)c(-c5ccc[$]s5)c5nn(SCC(CCCC)CCCCCC)nc45)s3)sc2c(SCC(CCCC)CCCCCC)c2cc[$]sc12}.CCCCCCc1ccc(C2(c3ccc(CCCCCC)cc3)c3cc4c(cc3-c3sc5c(sc6cc(/C=C7\C(=O)c8c(F)cccc8C7=C(C#N)C#N)sc65)c32)C(c2ccc(CCCCCC)cc2)(c2ccc(CCCCCC)cc2)c2c-4sc3c2sc2cc(/C=C4\C(=O)c5c(F)cccc5C4=C(C#N)C#N)sc23)cc1