Donor,Acceptor,HOMO_D_eV,LUMO_D_eV,HOMO_A_eV,LUMO_A_eV,D_A_ratio_m_m,solvent,total_solids_conc_mg_mL,solvent_additive,annealing_temperature,PCE_percent,calc_PCE_percent,Voc_V,Jsc_mA_cm_pow_neg2,FF_percent,DA_SMILES,DA_SELFIES,DA_BigSMILES
PTB7-Th,NFDTS,-5.204782608695651,-3.5391891891891896,-5.36,-3.92,0.833,CF,20.0,_,25.0,6.15,6.15,0.67,18.77,48.9,CCCCC(CC)COC(=O)c1sc2c(-c3cc4c(-c5ccc(CC(CC)CCCC)s5)c5sc(C)cc5c(-c5ccc(CC(CC)CCCC)s5)c4s3)sc(C)c2c1F.CCCCCCCC[Si]1(CCCCCCCC)c2cc(/C=C3\C(=O)c4cc(F)c(F)cc4C3=C(C#N)C#N)sc2-c2sc3c4c(sc3c21)-c1sc(/C=C2\C(=O)c3cc(F)c(F)cc3C2=C(C#N)C#N)cc1[Si]4(CCCCCCCC)CCCCCCCC,[C][C][C][C][C][Branch1][Ring1][C][C][C][O][C][=Branch1][C][=O][C][S][C][=C][Branch2][=Branch1][Ring2][C][=C][C][=C][Branch2][Ring1][Ring2][C][=C][C][=C][Branch1][O][C][C][Branch1][Ring1][C][C][C][C][C][C][S][Ring1][=N][C][S][C][Branch1][C][C][=C][C][=Ring1][=Branch1][C][Branch2][Ring1][Ring2][C][=C][C][=C][Branch1][O][C][C][Branch1][Ring1][C][C][C][C][C][C][S][Ring1][=N][=C][Ring2][Ring2][Ring2][S][Ring2][Ring2][#Branch1][S][C][Branch1][C][C][=C][Ring2][Ring2][=N][C][=Ring2][Ring2][S][F].[C][C][C][C][C][C][C][C][Si][Branch1][=Branch2][C][C][C][C][C][C][C][C][C][C][=C][Branch2][Ring1][#C][/C][=C][\C][=Branch1][C][=O][C][=C][C][Branch1][C][F][=C][Branch1][C][F][C][=C][Ring1][Branch2][C][Ring1][N][=C][Branch1][Ring1][C][#N][C][#N][S][C][=Ring2][Ring1][#Branch1][C][S][C][C][=C][Branch1][O][S][C][=Ring1][Branch1][C][=Ring1][Branch2][Ring2][Ring2][Branch2][C][S][C][Branch2][Ring1][#C][/C][=C][\C][=Branch1][C][=O][C][=C][C][Branch1][C][F][=C][Branch1][C][F][C][=C][Ring1][Branch2][C][Ring1][N][=C][Branch1][Ring1][C][#N][C][#N][=C][C][=Ring2][Ring1][#Branch1][Si][Ring2][Ring1][=N][Branch1][=Branch2][C][C][C][C][C][C][C][C][C][C][C][C][C][C][C][C],{[$]CCCC(CC)COC(=O)c1sc2c(-c3cc4c(-c5ccc(CC(CC)CCCC)s5)c5sc[$]cc5c(-c5ccc(CC(CC)CCCC)s5)c4s3)sc[$]c2c1F}.CCCCCCCC[Si]1(CCCCCCCC)c2cc(/C=C3\C(=O)c4cc(F)c(F)cc4C3=C(C#N)C#N)sc2-c2sc3c4c(sc3c21)-c1sc(/C=C2\C(=O)c3cc(F)c(F)cc3C2=C(C#N)C#N)cc1[Si]4(CCCCCCCC)CCCCCCCC
PTB7-Th,NFDTSB,-5.204782608695651,-3.5391891891891896,-5.56,-3.85,1.0,CF,20.0,_,25.0,9.6,9.61,0.75,20.14,63.6,CCCCC(CC)COC(=O)c1sc2c(-c3cc4c(-c5ccc(CC(CC)CCCC)s5)c5sc(C)cc5c(-c5ccc(CC(CC)CCCC)s5)c4s3)sc(C)c2c1F.CCCCCCCC[Si]1(CCCCCCCC)c2cc(/C=C3\C(=O)c4cc(F)c(F)cc4C3=C(C#N)C#N)sc2-c2sc3c(OSCC(CCCC)CCCCCC)c4c5c(sc4c(OSCC(CCCC)CCCCCC)c3c21)-c1sc(/C=C2\C(=O)c3cc(F)c(F)cc3C2=C(C#N)C#N)cc1[Si]5(CCCCCCCC)CCCCCCCC,[C][C][C][C][C][Branch1][Ring1][C][C][C][O][C][=Branch1][C][=O][C][S][C][=C][Branch2][=Branch1][Ring2][C][=C][C][=C][Branch2][Ring1][Ring2][C][=C][C][=C][Branch1][O][C][C][Branch1][Ring1][C][C][C][C][C][C][S][Ring1][=N][C][S][C][Branch1][C][C][=C][C][=Ring1][=Branch1][C][Branch2][Ring1][Ring2][C][=C][C][=C][Branch1][O][C][C][Branch1][Ring1][C][C][C][C][C][C][S][Ring1][=N][=C][Ring2][Ring2][Ring2][S][Ring2][Ring2][#Branch1][S][C][Branch1][C][C][=C][Ring2][Ring2][=N][C][=Ring2][Ring2][S][F].[C][C][C][C][C][C][C][C][Si][Branch1][=Branch2][C][C][C][C][C][C][C][C][C][C][=C][Branch2][Ring1][#C][/C][=C][\C][=Branch1][C][=O][C][=C][C][Branch1][C][F][=C][Branch1][C][F][C][=C][Ring1][Branch2][C][Ring1][N][=C][Branch1][Ring1][C][#N][C][#N][S][C][=Ring2][Ring1][#Branch1][C][S][C][=C][Branch1][P][O][S][C][C][Branch1][Branch1][C][C][C][C][C][C][C][C][C][C][C][C][=C][Branch2][Ring2][Ring1][S][C][=Ring1][Branch1][C][Branch1][P][O][S][C][C][Branch1][Branch1][C][C][C][C][C][C][C][C][C][C][=C][Ring2][Ring2][Branch1][C][=Ring2][Ring2][Branch2][Ring2][=Branch1][Branch2][C][S][C][Branch2][Ring1][#C][/C][=C][\C][=Branch1][C][=O][C][=C][C][Branch1][C][F][=C][Branch1][C][F][C][=C][Ring1][Branch2][C][Ring1][N][=C][Branch1][Ring1][C][#N][C][#N][=C][C][=Ring2][Ring1][#Branch1][Si][Ring2][Ring2][=N][Branch1][=Branch2][C][C][C][C][C][C][C][C][C][C][C][C][C][C][C][C],{[$]CCCC(CC)COC(=O)c1sc2c(-c3cc4c(-c5ccc(CC(CC)CCCC)s5)c5sc[$]cc5c(-c5ccc(CC(CC)CCCC)s5)c4s3)sc[$]c2c1F}.CCCCCCCC[Si]1(CCCCCCCC)c2cc(/C=C3\C(=O)c4cc(F)c(F)cc4C3=C(C#N)C#N)sc2-c2sc3c(OSCC(CCCC)CCCCCC)c4c5c(sc4c(OSCC(CCCC)CCCCCC)c3c21)-c1sc(/C=C2\C(=O)c3cc(F)c(F)cc3C2=C(C#N)C#N)cc1[Si]5(CCCCCCCC)CCCCCCCC
PBDB-T,DTNIF,-5.297714285714285,-3.4170000000000003,-5.82,-3.92,1.0,CB,18.0,_,25.0,8.73,8.68,0.9,13.26,72.77,CCCCC(CC)Cc1ccc(-c2c3cc(-c4ccc(-c5sc(-c6ccc(C)s6)c6c5C(=O)c5c(CC(CC)CCCC)sc(CC(CC)CCCC)c5C6=O)s4)sc3c(-c3ccc(CC(CC)CCCC)s3)c3cc(C)sc23)s1.CCCCC(CC)CC1(CC(CC)CCCC)c2cc(C=C3C(=O)c4cc(F)ccc4C3=C(C#N)C#N)sc2-c2c1ccc1c3c(ccc21)C(CC(CC)CCCC)(CC(CC)CCCC)c1cc(C=C2C(=O)c4cc(F)ccc4C2=C(C#N)C#N)sc1-3,[C][C][C][C][C][Branch1][Ring1][C][C][C][C][=C][C][=C][Branch2][=Branch2][Branch2][C][=C][C][=C][Branch2][=Branch1][Branch2][C][=C][C][=C][Branch2][Branch1][=N][C][S][C][Branch1][O][C][=C][C][=C][Branch1][C][C][S][Ring1][=Branch1][=C][C][=Ring1][O][C][=Branch1][C][=O][C][=C][Branch1][O][C][C][Branch1][Ring1][C][C][C][C][C][C][S][C][Branch1][O][C][C][Branch1][Ring1][C][C][C][C][C][C][=C][Ring2][Ring1][Branch1][C][Ring2][Ring1][#Branch2][=O][S][Ring2][Ring2][=Branch2][S][C][Ring2][Ring2][=C][=C][Branch2][Ring1][Ring2][C][=C][C][=C][Branch1][O][C][C][Branch1][Ring1][C][C][C][C][C][C][S][Ring1][=N][C][C][=C][Branch1][C][C][S][C][Ring2][=Branch1][Ring1][=Ring1][=Branch1][S][Ring2][=Branch1][Branch2].[C][C][C][C][C][Branch1][Ring1][C][C][C][C][Branch1][O][C][C][Branch1][Ring1][C][C][C][C][C][C][C][C][=C][Branch2][Ring1][N][C][=C][C][=Branch1][C][=O][C][=C][C][Branch1][C][F][=C][C][=C][Ring1][#Branch1][C][Ring1][O][=C][Branch1][Ring1][C][#N][C][#N][S][C][=Ring2][Ring1][=Branch1][C][=C][Ring2][Ring1][P][C][=C][C][=C][C][=Branch1][Branch2][=C][C][=C][Ring1][#Branch2][Ring1][=Branch1][C][Branch1][O][C][C][Branch1][Ring1][C][C][C][C][C][C][Branch1][O][C][C][Branch1][Ring1][C][C][C][C][C][C][C][C][=C][Branch2][Ring1][N][C][=C][C][=Branch1][C][=O][C][=C][C][Branch1][C][F][=C][C][=C][Ring1][#Branch1][C][Ring1][O][=C][Branch1][Ring1][C][#N][C][#N][S][C][=Ring2][Ring1][=Branch1][Ring2][Ring2][N],{[$]CCCC(CC)Cc1ccc(-c2c3cc(-c4ccc(-c5sc(-c6ccc[$]s6)c6c5C(=O)c5c(CC(CC)CCCC)sc(CC(CC)CCCC)c5C6=O)s4)sc3c(-c3ccc(CC(CC)CCCC)s3)c3cc[$]sc23)s1}.CCCCC(CC)CC1(CC(CC)CCCC)c2cc(C=C3C(=O)c4cc(F)ccc4C3=C(C#N)C#N)sc2-c2c1ccc1c3c(ccc21)C(CC(CC)CCCC)(CC(CC)CCCC)c1cc(C=C2C(=O)c4cc(F)ccc4C2=C(C#N)C#N)sc1-3
PBDB-T,DTNSF,-5.297714285714285,-3.4170000000000003,-5.52,-4.0,1.0,CB,18.0,_,25.0,7.15,7.28,0.92,14.49,54.62,CCCCC(CC)Cc1ccc(-c2c3cc(-c4ccc(-c5sc(-c6ccc(C)s6)c6c5C(=O)c5c(CC(CC)CCCC)sc(CC(CC)CCCC)c5C6=O)s4)sc3c(-c3ccc(CC(CC)CCCC)s3)c3cc(C)sc23)s1.CCCCC(CC)CC1(CC(CC)CCCC)c2cc(-c3ccc(C=C4C(=O)c5cc(F)ccc5C4=C(C#N)C#N)s3)sc2-c2c1ccc1c3c(ccc21)C(CC(CC)CCCC)(CC(CC)CCCC)c1cc(-c2ccc(C=C4C(=O)c5cc(F)ccc5C4=C(C#N)C#N)s2)sc1-3,[C][C][C][C][C][Branch1][Ring1][C][C][C][C][=C][C][=C][Branch2][=Branch2][Branch2][C][=C][C][=C][Branch2][=Branch1][Branch2][C][=C][C][=C][Branch2][Branch1][=N][C][S][C][Branch1][O][C][=C][C][=C][Branch1][C][C][S][Ring1][=Branch1][=C][C][=Ring1][O][C][=Branch1][C][=O][C][=C][Branch1][O][C][C][Branch1][Ring1][C][C][C][C][C][C][S][C][Branch1][O][C][C][Branch1][Ring1][C][C][C][C][C][C][=C][Ring2][Ring1][Branch1][C][Ring2][Ring1][#Branch2][=O][S][Ring2][Ring2][=Branch2][S][C][Ring2][Ring2][=C][=C][Branch2][Ring1][Ring2][C][=C][C][=C][Branch1][O][C][C][Branch1][Ring1][C][C][C][C][C][C][S][Ring1][=N][C][C][=C][Branch1][C][C][S][C][Ring2][=Branch1][Ring1][=Ring1][=Branch1][S][Ring2][=Branch1][Branch2].[C][C][C][C][C][Branch1][Ring1][C][C][C][C][Branch1][O][C][C][Branch1][Ring1][C][C][C][C][C][C][C][C][=C][Branch2][Ring2][#Branch1][C][=C][C][=C][Branch2][Ring1][N][C][=C][C][=Branch1][C][=O][C][=C][C][Branch1][C][F][=C][C][=C][Ring1][#Branch1][C][Ring1][O][=C][Branch1][Ring1][C][#N][C][#N][S][Ring2][Ring1][=Branch1][S][C][=Ring2][Ring1][O][C][=C][Ring2][Ring2][=Branch1][C][=C][C][=C][C][=Branch1][Branch2][=C][C][=C][Ring1][#Branch2][Ring1][=Branch1][C][Branch1][O][C][C][Branch1][Ring1][C][C][C][C][C][C][Branch1][O][C][C][Branch1][Ring1][C][C][C][C][C][C][C][C][=C][Branch2][Ring2][#Branch1][C][=C][C][=C][Branch2][Ring1][N][C][=C][C][=Branch1][C][=O][C][=C][C][Branch1][C][F][=C][C][=C][Ring1][#Branch1][C][Ring1][O][=C][Branch1][Ring1][C][#N][C][#N][S][Ring2][Ring1][=Branch1][S][C][=Ring2][Ring1][O][Ring2][Ring2][P],{[$]CCCC(CC)Cc1ccc(-c2c3cc(-c4ccc(-c5sc(-c6ccc[$]s6)c6c5C(=O)c5c(CC(CC)CCCC)sc(CC(CC)CCCC)c5C6=O)s4)sc3c(-c3ccc(CC(CC)CCCC)s3)c3cc[$]sc23)s1}.CCCCC(CC)CC1(CC(CC)CCCC)c2cc(-c3ccc(C=C4C(=O)c5cc(F)ccc5C4=C(C#N)C#N)s3)sc2-c2c1ccc1c3c(ccc21)C(CC(CC)CCCC)(CC(CC)CCCC)c1cc(-c2ccc(C=C4C(=O)c5cc(F)ccc5C4=C(C#N)C#N)s2)sc1-3
PBTIBDTT,Si4TIC-F,-5.47,-3.6,-5.58,-4.21,0.667,CB,12.5,CN,25.0,10.2,10.2,0.78,18.84,69.4,CCCCCCCCCCc1cc(C)sc1-c1cc2c(=O)n(CC(CCCCCC)CCCCCCCC)c(=O)c3cc(-c4sc(-c5cc6c(-c7ccc(CC(CC)CCCC)s7)c7sc(C)cc7c(-c7ccc(CC(CC)CCCC)s7)c6s5)cc4CCCCCCCCCC)sc3c2s1.CCCCCC[Si]1(CCCCCC)c2cc(C=C3C(=O)c4cc(F)ccc4C3=C(C#N)C#N)sc2-c2sc3c4c(sc3c21)-c1sc(C=C2C(=O)c3cc(F)ccc3C2=C(C#N)C#N)cc1[Si]4(CCCCCC)CCCCCC,[C][C][C][C][C][C][C][C][C][C][C][C][=C][Branch1][C][C][S][C][=Ring1][=Branch1][C][=C][C][C][=Branch1][C][=O][N][Branch2][Ring1][Ring1][C][C][Branch1][#Branch1][C][C][C][C][C][C][C][C][C][C][C][C][C][C][C][=Branch1][C][=O][C][C][=C][Branch2][#Branch1][=Branch2][C][S][C][Branch2][=Branch1][Ring2][C][=C][C][=C][Branch2][Ring1][Ring2][C][=C][C][=C][Branch1][O][C][C][Branch1][Ring1][C][C][C][C][C][C][S][Ring1][=N][C][S][C][Branch1][C][C][=C][C][=Ring1][=Branch1][C][Branch2][Ring1][Ring2][C][=C][C][=C][Branch1][O][C][C][Branch1][Ring1][C][C][C][C][C][C][S][Ring1][=N][=C][Ring2][Ring2][Ring2][S][Ring2][Ring2][#Branch1][=C][C][=Ring2][Ring2][N][C][C][C][C][C][C][C][C][C][C][S][C][=Ring2][Branch1][O][C][=Ring2][#Branch1][C][S][Ring2][#Branch1][Branch1].[C][C][C][C][C][C][Si][Branch1][#Branch1][C][C][C][C][C][C][C][C][=C][Branch2][Ring1][N][C][=C][C][=Branch1][C][=O][C][=C][C][Branch1][C][F][=C][C][=C][Ring1][#Branch1][C][Ring1][O][=C][Branch1][Ring1][C][#N][C][#N][S][C][=Ring2][Ring1][=Branch1][C][S][C][C][=C][Branch1][O][S][C][=Ring1][Branch1][C][=Ring1][Branch2][Ring2][Ring2][Branch1][C][S][C][Branch2][Ring1][N][C][=C][C][=Branch1][C][=O][C][=C][C][Branch1][C][F][=C][C][=C][Ring1][#Branch1][C][Ring1][O][=C][Branch1][Ring1][C][#N][C][#N][=C][C][=Ring2][Ring1][=Branch1][Si][Ring2][Ring1][N][Branch1][#Branch1][C][C][C][C][C][C][C][C][C][C][C][C],{[$]CCCCCCCCCc1cc[$]sc1-c1cc2c(=O)n(CC(CCCCCC)CCCCCCCC)c(=O)c3cc(-c4sc(-c5cc6c(-c7ccc(CC(CC)CCCC)s7)c7sc[$]cc7c(-c7ccc(CC(CC)CCCC)s7)c6s5)cc4CCCCCCCCCC)sc3c2s1}.CCCCCC[Si]1(CCCCCC)c2cc(C=C3C(=O)c4cc(F)ccc4C3=C(C#N)C#N)sc2-c2sc3c4c(sc3c21)-c1sc(C=C2C(=O)c3cc(F)ccc3C2=C(C#N)C#N)cc1[Si]4(CCCCCC)CCCCCC
PDCBT-2F,IT-4F,-5.6,-3.67,-5.66875,-4.060416666666667,1.0,CF,16.0,DIO,25.0,11.6,11.3,0.92,17.8,69.0,CCCCCCCCCCC(CCCCCCCC)COC(=O)c1cc(C)sc1-c1cc(F)c(-c2sc(-c3sc(C)cc3C(=O)OCC(CCCCCCCC)CCCCCCCCCC)cc2F)s1.CCCCCCc1ccc(C2(c3ccc(CCCCCC)cc3)c3cc4c(cc3-c3sc5cc(/C=C6\C(=O)c7cc(F)c(F)cc7C6=C(C#N)C#N)sc5c32)C(c2ccc(CCCCCC)cc2)(c2ccc(CCCCCC)cc2)c2c-4sc3cc(/C=C4\C(=O)c5cc(F)c(F)cc5C4=C(C#N)C#N)sc23)cc1,[C][C][C][C][C][C][C][C][C][C][C][Branch1][=Branch2][C][C][C][C][C][C][C][C][C][O][C][=Branch1][C][=O][C][C][=C][Branch1][C][C][S][C][=Ring1][=Branch1][C][=C][C][Branch1][C][F][=C][Branch2][Branch1][C][C][S][C][Branch2][Ring2][=Branch1][C][S][C][Branch1][C][C][=C][C][=Ring1][=Branch1][C][=Branch1][C][=O][O][C][C][Branch1][=Branch2][C][C][C][C][C][C][C][C][C][C][C][C][C][C][C][C][C][C][=C][C][=Ring2][Ring2][C][F][S][Ring2][Ring2][=Branch2].[C][C][C][C][C][C][C][=C][C][=C][Branch2][N][Branch2][C][Branch1][P][C][=C][C][=C][Branch1][#Branch1][C][C][C][C][C][C][C][=C][Ring1][N][C][=C][C][=C][Branch2][Branch1][#Branch1][C][=C][Ring1][=Branch1][C][S][C][C][=C][Branch2][Ring1][#C][/C][=C][\C][=Branch1][C][=O][C][=C][C][Branch1][C][F][=C][Branch1][C][F][C][=C][Ring1][Branch2][C][Ring1][N][=C][Branch1][Ring1][C][#N][C][#N][S][C][=Ring2][Ring1][#Branch1][C][=Ring2][Ring1][#Branch2][Ring2][Ring2][=N][C][Branch1][P][C][=C][C][=C][Branch1][#Branch1][C][C][C][C][C][C][C][=C][Ring1][N][Branch1][P][C][=C][C][=C][Branch1][#Branch1][C][C][C][C][C][C][C][=C][Ring1][N][C][=C][Ring2][Branch1][=Branch2][S][C][C][=C][Branch2][Ring1][#C][/C][=C][\C][=Branch1][C][=O][C][=C][C][Branch1][C][F][=C][Branch1][C][F][C][=C][Ring1][Branch2][C][Ring1][N][=C][Branch1][Ring1][C][#N][C][#N][S][C][Ring2][Ring1][#Branch2][=Ring2][Ring1][#Branch1][C][=C][Ring2][Branch2][=Branch1],{[$]CCCCCCCCCC(CCCCCCCC)COC(=O)c1cc[$]sc1-c1cc(F)c(-c2sc(-c3sc[$]cc3C(=O)OCC(CCCCCCCC)CCCCCCCCCC)cc2F)s1}.CCCCCCc1ccc(C2(c3ccc(CCCCCC)cc3)c3cc4c(cc3-c3sc5cc(/C=C6\C(=O)c7cc(F)c(F)cc7C6=C(C#N)C#N)sc5c32)C(c2ccc(CCCCCC)cc2)(c2ccc(CCCCCC)cc2)c2c-4sc3cc(/C=C4\C(=O)c5cc(F)c(F)cc5C4=C(C#N)C#N)sc23)cc1
PTB7-Th,IDT-FBTR,-5.204782608695651,-3.5391891891891896,-5.47,-3.65,1.5,o-DCB,20.0,_,25.0,7.01,7.0,1.02,12.95,52.97,CCCCC(CC)COC(=O)c1sc2c(-c3cc4c(-c5ccc(CC(CC)CCCC)s5)c5sc(C)cc5c(-c5ccc(CC(CC)CCCC)s5)c4s3)sc(C)c2c1F.CCCCCCCCn1c(=C(C#N)C#N)sc(=Cc2ccc(-c3c(F)cc(-c4cc5c(s4)-c4cc6c(cc4C5(c4ccc(CCCCCC)cc4)c4ccc(CCCCCC)cc4)-c4sc(-c5cc(F)c(-c7ccc(C=c8sc(=C(C#N)C#N)n(CCCCCCCC)c8=O)s7)c7nsnc57)cc4C6(c4ccc(CCCCCC)cc4)c4ccc(CCCCCC)cc4)c4nsnc34)s2)c1=O,[C][C][C][C][C][Branch1][Ring1][C][C][C][O][C][=Branch1][C][=O][C][S][C][=C][Branch2][=Branch1][Ring2][C][=C][C][=C][Branch2][Ring1][Ring2][C][=C][C][=C][Branch1][O][C][C][Branch1][Ring1][C][C][C][C][C][C][S][Ring1][=N][C][S][C][Branch1][C][C][=C][C][=Ring1][=Branch1][C][Branch2][Ring1][Ring2][C][=C][C][=C][Branch1][O][C][C][Branch1][Ring1][C][C][C][C][C][C][S][Ring1][=N][=C][Ring2][Ring2][Ring2][S][Ring2][Ring2][#Branch1][S][C][Branch1][C][C][=C][Ring2][Ring2][=N][C][=Ring2][Ring2][S][F].[C][C][C][C][C][C][C][C][N][C][=Branch1][Branch2][=C][Branch1][Ring1][C][#N][C][#N][S][C][=Branch2][=C][#Branch1][=C][C][=C][C][=C][Branch2][=N][O][C][=C][Branch1][C][F][C][=C][Branch2][N][#Branch1][C][=C][C][=C][Branch1][Ring2][S][Ring1][Branch1][C][=C][C][=C][Branch2][Ring2][#Branch2][C][=C][Ring1][=Branch1][C][Ring1][#Branch2][Branch1][P][C][=C][C][=C][Branch1][#Branch1][C][C][C][C][C][C][C][=C][Ring1][N][C][=C][C][=C][Branch1][#Branch1][C][C][C][C][C][C][C][=C][Ring1][N][C][S][C][Branch2][Branch1][=N][C][=C][C][Branch1][C][F][=C][Branch2][Ring2][=Branch2][C][=C][C][=C][Branch2][Ring1][=C][C][=C][S][C][=Branch1][Branch2][=C][Branch1][Ring1][C][#N][C][#N][N][Branch1][=Branch2][C][C][C][C][C][C][C][C][C][Ring2][Ring1][C][=O][S][Ring2][Ring1][=Branch2][C][=N][S][N][=C][Ring2][Ring2][Ring1][Ring1][Branch1][=C][C][=Ring2][Ring2][Branch2][C][Ring2][=Branch1][=Branch1][Branch1][P][C][=C][C][=C][Branch1][#Branch1][C][C][C][C][C][C][C][=C][Ring1][N][C][=C][C][=C][Branch1][#Branch1][C][C][C][C][C][C][C][=C][Ring1][N][C][=N][S][N][=C][Ring2][Branch2][#C][Ring1][Branch1][S][Ring2][=Branch2][Ring2][C][Ring2][=Branch2][#C][=O],{[$]CCCC(CC)COC(=O)c1sc2c(-c3cc4c(-c5ccc(CC(CC)CCCC)s5)c5sc[$]cc5c(-c5ccc(CC(CC)CCCC)s5)c4s3)sc[$]c2c1F}.CCCCCCCCn1c(=C(C#N)C#N)sc(=Cc2ccc(-c3c(F)cc(-c4cc5c(s4)-c4cc6c(cc4C5(c4ccc(CCCCCC)cc4)c4ccc(CCCCCC)cc4)-c4sc(-c5cc(F)c(-c7ccc(C=c8sc(=C(C#N)C#N)n(CCCCCCCC)c8=O)s7)c7nsnc57)cc4C6(c4ccc(CCCCCC)cc4)c4ccc(CCCCCC)cc4)c4nsnc34)s2)c1=O
PBT1-C-MW,ITCPTC,-5.46,-3.4,-5.604000000000001,-3.858000000000001,1.0,CF,16.0,_,100.0,12.8,12.77,0.94,17.2,79.0,CCCCCCC(CCCC)Cc1ccc(Cc2c3cc(-c4ccc(-c5sc(-c6ccc(C)s6)c6c5C(=O)c5c(CC(CC)CCCC)sc(CC(CC)CCCC)c5C6=O)s4)sc3c(Cc3ccc(CC(CCCC)CCCCCC)cc3)c3cc(C)sc23)cc1.CCCCCCc1ccc(C2(c3ccc(CCCCCC)cc3)c3cc4c(cc3-c3sc5cc(/C=C6\C(=O)c7cscc7C6=C(C#N)C#N)sc5c32)C(c2ccc(CCCCCC)cc2)(c2ccc(CCCCCC)cc2)c2c-4sc3cc(/C=C4\C(=O)c5cscc5C4=C(C#N)C#N)sc23)cc1,[C][C][C][C][C][C][C][Branch1][Branch1][C][C][C][C][C][C][=C][C][=C][Branch2][=Branch2][S][C][C][=C][C][=C][Branch2][=Branch1][Branch2][C][=C][C][=C][Branch2][Branch1][=N][C][S][C][Branch1][O][C][=C][C][=C][Branch1][C][C][S][Ring1][=Branch1][=C][C][=Ring1][O][C][=Branch1][C][=O][C][=C][Branch1][O][C][C][Branch1][Ring1][C][C][C][C][C][C][S][C][Branch1][O][C][C][Branch1][Ring1][C][C][C][C][C][C][=C][Ring2][Ring1][Branch1][C][Ring2][Ring1][#Branch2][=O][S][Ring2][Ring2][=Branch2][S][C][Ring2][Ring2][=C][=C][Branch2][Ring1][O][C][C][=C][C][=C][Branch1][#C][C][C][Branch1][Branch1][C][C][C][C][C][C][C][C][C][C][C][=C][Ring2][Ring1][C][C][C][=C][Branch1][C][C][S][C][Ring2][=Branch1][=Branch2][=Ring1][=Branch1][C][=C][Ring2][=Branch1][S].[C][C][C][C][C][C][C][=C][C][=C][Branch2][O][#Branch2][C][Branch1][P][C][=C][C][=C][Branch1][#Branch1][C][C][C][C][C][C][C][=C][Ring1][N][C][=C][C][=C][Branch2][Ring2][S][C][=C][Ring1][=Branch1][C][S][C][C][=C][Branch2][Ring1][Branch2][/C][=C][\C][=Branch1][C][=O][C][=C][S][C][=C][Ring1][Branch1][C][Ring1][=Branch2][=C][Branch1][Ring1][C][#N][C][#N][S][C][=Ring2][Ring1][Ring2][C][=Ring2][Ring1][#Branch1][Ring2][Ring2][#Branch2][C][Branch1][P][C][=C][C][=C][Branch1][#Branch1][C][C][C][C][C][C][C][=C][Ring1][N][Branch1][P][C][=C][C][=C][Branch1][#Branch1][C][C][C][C][C][C][C][=C][Ring1][N][C][=C][Ring2][Branch1][=Branch1][S][C][C][=C][Branch2][Ring1][Branch2][/C][=C][\C][=Branch1][C][=O][C][=C][S][C][=C][Ring1][Branch1][C][Ring1][=Branch2][=C][Branch1][Ring1][C][#N][C][#N][S][C][Ring2][Ring1][#Branch1][=Ring2][Ring1][Ring2][C][=C][Ring2][#Branch1][S],{[$]CCCCCC(CCCC)Cc1ccc(Cc2c3cc(-c4ccc(-c5sc(-c6ccc[$]s6)c6c5C(=O)c5c(CC(CC)CCCC)sc(CC(CC)CCCC)c5C6=O)s4)sc3c(Cc3ccc(CC(CCCC)CCCCCC)cc3)c3cc[$]sc23)cc1}.CCCCCCc1ccc(C2(c3ccc(CCCCCC)cc3)c3cc4c(cc3-c3sc5cc(/C=C6\C(=O)c7cscc7C6=C(C#N)C#N)sc5c32)C(c2ccc(CCCCCC)cc2)(c2ccc(CCCCCC)cc2)c2c-4sc3cc(/C=C4\C(=O)c5cscc5C4=C(C#N)C#N)sc23)cc1
PBDTTz-N,ITIC,-5.23,-3.52,-5.574146341463415,-3.915,1.0,CB,14.0,_,25.0,6.61,6.62,0.75,18.0,49.0,CCCCCCCCC(CCCCCC)COc1ccc2cc(-c3c4cc(-c5ccc(-c6c(F)c(F)c(-c7ccc(C)s7)c7nn(SCC(CCCC)CCCCCC)nc67)s5)sc4c(-c4ccc5cc(OCC(CCCCCC)CCCCCCCC)ccc5c4)c4cc(C)sc34)ccc2c1.CCCCCCc1ccc(C2(c3ccc(CCCCCC)cc3)c3cc4c(cc3-c3sc5cc(/C=C6\C(=O)c7ccccc7C6=C(C#N)C#N)sc5c32)C(c2ccc(CCCCCC)cc2)(c2ccc(CCCCCC)cc2)c2c-4sc3cc(/C=C4\C(=O)c5ccccc5C4=C(C#N)C#N)sc23)cc1,[C][C][C][C][C][C][C][C][C][Branch1][#Branch1][C][C][C][C][C][C][C][O][C][=C][C][=C][C][=C][Branch2][=Branch2][P][C][=C][C][=C][Branch2][Branch1][=C][C][=C][C][=C][Branch2][Branch1][Ring1][C][=C][Branch1][C][F][C][Branch1][C][F][=C][Branch1][O][C][=C][C][=C][Branch1][C][C][S][Ring1][=Branch1][C][=N][N][Branch1][S][S][C][C][Branch1][Branch1][C][C][C][C][C][C][C][C][C][C][N][=C][Ring2][Ring1][=C][Ring2][Ring1][C][S][Ring2][Ring2][Ring1][S][C][Ring2][Ring2][Branch2][=C][Branch2][Ring2][#Branch1][C][=C][C][=C][C][=C][Branch2][Ring1][Ring2][O][C][C][Branch1][#Branch1][C][C][C][C][C][C][C][C][C][C][C][C][C][C][C][=C][C][Ring2][Ring1][#Branch1][=C][Ring2][Ring1][O][C][C][=C][Branch1][C][C][S][C][Ring2][=Branch1][O][=Ring1][=Branch1][C][=C][C][Ring2][=Branch1][P][=C][Ring2][#Branch1][Branch1].[C][C][C][C][C][C][C][=C][C][=C][Branch2][O][N][C][Branch1][P][C][=C][C][=C][Branch1][#Branch1][C][C][C][C][C][C][C][=C][Ring1][N][C][=C][C][=C][Branch2][Ring2][P][C][=C][Ring1][=Branch1][C][S][C][C][=C][Branch2][Ring1][=Branch2][/C][=C][\C][=Branch1][C][=O][C][=C][C][=C][C][=C][Ring1][=Branch1][C][Ring1][#Branch2][=C][Branch1][Ring1][C][#N][C][#N][S][C][=Ring2][Ring1][Branch1][C][=Ring2][Ring1][Branch2][Ring2][Ring2][O][C][Branch1][P][C][=C][C][=C][Branch1][#Branch1][C][C][C][C][C][C][C][=C][Ring1][N][Branch1][P][C][=C][C][=C][Branch1][#Branch1][C][C][C][C][C][C][C][=C][Ring1][N][C][=C][Ring2][Branch1][#Branch1][S][C][C][=C][Branch2][Ring1][=Branch2][/C][=C][\C][=Branch1][C][=O][C][=C][C][=C][C][=C][Ring1][=Branch1][C][Ring1][#Branch2][=C][Branch1][Ring1][C][#N][C][#N][S][C][Ring2][Ring1][Branch2][=Ring2][Ring1][Branch1][C][=C][Ring2][Branch2][C],{[$]CCCCCCCC(CCCCCC)COc1ccc2cc(-c3c4cc(-c5ccc(-c6c(F)c(F)c(-c7ccc[$]s7)c7nn(SCC(CCCC)CCCCCC)nc67)s5)sc4c(-c4ccc5cc(OCC(CCCCCC)CCCCCCCC)ccc5c4)c4cc[$]sc34)ccc2c1}.CCCCCCc1ccc(C2(c3ccc(CCCCCC)cc3)c3cc4c(cc3-c3sc5cc(/C=C6\C(=O)c7ccccc7C6=C(C#N)C#N)sc5c32)C(c2ccc(CCCCCC)cc2)(c2ccc(CCCCCC)cc2)c2c-4sc3cc(/C=C4\C(=O)c5ccccc5C4=C(C#N)C#N)sc23)cc1