Donor,Acceptor,HOMO_D_eV,LUMO_D_eV,HOMO_A_eV,LUMO_A_eV,D_A_ratio_m_m,solvent,solvent_additive,annealing_temperature,PCE_percent,calc_PCE_percent,Voc_V,Jsc_mA_cm_pow_neg2,FF_percent,DA_SMILES,DA_SELFIES,DA_BigSMILES
PBDB-T,IT-DM,-5.297777777777778,-3.4170000000000003,-5.515,-3.855,1.0,CB,DIO,160.0,11.29,11.29,0.97,16.48,70.6,CCCCC(CC)Cc1ccc(-c2c3cc(-c4ccc(-c5sc(-c6ccc(C)s6)c6c5C(=O)c5c(CC(CC)CCCC)sc(CC(CC)CCCC)c5C6=O)s4)sc3c(-c3ccc(CC(CC)CCCC)s3)c3cc(C)sc23)s1.CCCCCCc1ccc(C2(c3ccc(CCCCCC)cc3)c3cc4c(cc3-c3sc5cc(/C=C6\C(=O)c7cc(C)c(C)cc7C6=C(C#N)C#N)sc5c32)C(c2ccc(CCCCCC)cc2)(c2ccc(CCCCCC)cc2)c2c-4sc3cc(/C=C4\C(=O)c5cc(C)c(C)cc5C4=C(C#N)C#N)sc23)cc1,[C][C][C][C][C][Branch1][Ring1][C][C][C][C][=C][C][=C][Branch2][=Branch2][Branch2][C][=C][C][=C][Branch2][=Branch1][Branch2][C][=C][C][=C][Branch2][Branch1][=N][C][S][C][Branch1][O][C][=C][C][=C][Branch1][C][C][S][Ring1][=Branch1][=C][C][=Ring1][O][C][=Branch1][C][=O][C][=C][Branch1][O][C][C][Branch1][Ring1][C][C][C][C][C][C][S][C][Branch1][O][C][C][Branch1][Ring1][C][C][C][C][C][C][=C][Ring2][Ring1][Branch1][C][Ring2][Ring1][#Branch2][=O][S][Ring2][Ring2][=Branch2][S][C][Ring2][Ring2][=C][=C][Branch2][Ring1][Ring2][C][=C][C][=C][Branch1][O][C][C][Branch1][Ring1][C][C][C][C][C][C][S][Ring1][=N][C][C][=C][Branch1][C][C][S][C][Ring2][=Branch1][Ring1][=Ring1][=Branch1][S][Ring2][=Branch1][Branch2].[C][C][C][C][C][C][C][=C][C][=C][Branch2][N][Branch2][C][Branch1][P][C][=C][C][=C][Branch1][#Branch1][C][C][C][C][C][C][C][=C][Ring1][N][C][=C][C][=C][Branch2][Branch1][#Branch1][C][=C][Ring1][=Branch1][C][S][C][C][=C][Branch2][Ring1][#C][/C][=C][\C][=Branch1][C][=O][C][=C][C][Branch1][C][C][=C][Branch1][C][C][C][=C][Ring1][Branch2][C][Ring1][N][=C][Branch1][Ring1][C][#N][C][#N][S][C][=Ring2][Ring1][#Branch1][C][=Ring2][Ring1][#Branch2][Ring2][Ring2][=N][C][Branch1][P][C][=C][C][=C][Branch1][#Branch1][C][C][C][C][C][C][C][=C][Ring1][N][Branch1][P][C][=C][C][=C][Branch1][#Branch1][C][C][C][C][C][C][C][=C][Ring1][N][C][=C][Ring2][Branch1][=Branch2][S][C][C][=C][Branch2][Ring1][#C][/C][=C][\C][=Branch1][C][=O][C][=C][C][Branch1][C][C][=C][Branch1][C][C][C][=C][Ring1][Branch2][C][Ring1][N][=C][Branch1][Ring1][C][#N][C][#N][S][C][Ring2][Ring1][#Branch2][=Ring2][Ring1][#Branch1][C][=C][Ring2][Branch2][=Branch1],{CCCCC(CC)Cc1ccc(-c2c3cc(-c4ccc(-c5sc(-c6ccc([$])s6)c6c5C(=O)c5c(CC(CC)CCCC)sc(CC(CC)CCCC)c5C6=O)s4)sc3c(-c3ccc(CC(CC)CCCC)s3)c3cc([$])sc23)s1}.CCCCCCc1ccc(C2(c3ccc(CCCCCC)cc3)c3cc4c(cc3-c3sc5cc(/C=C6\C(=O)c7cc(C)c(C)cc7C6=C(C#N)C#N)sc5c32)C(c2ccc(CCCCCC)cc2)(c2ccc(CCCCCC)cc2)c2c-4sc3cc(/C=C4\C(=O)c5cc(C)c(C)cc5C4=C(C#N)C#N)sc23)cc1
PBDB-ST,ITIC-SC6,-5.37,-3.59,-5.68,-3.91,1.0,DCB,CBA,110.0,7.27,7.24,0.9,13.87,58.0,CCCCC(CC)CSc1ccc(-c2c3cc(-c4ccc(-c5sc(-c6ccc(C)s6)c6c5C(=O)c5c(CC(CC)CCCC)sc(CC(CC)CCCC)c5C6=O)s4)sc3c(-c3ccc(SCC(CC)CCCC)s3)c3cc(C)sc23)s1.CCCCCCSc1ccc(C2(c3ccc(SCCCCCC)cc3)c3cc4c(cc3-c3sc5cc(/C=C6\C(=O)c7ccccc7C6=C(C#N)C#N)sc5c32)C(c2ccc(SCCCCCC)cc2)(c2ccc(SCCCCCC)cc2)c2c-4sc3cc(/C=C4\C(=O)c5ccccc5C4=C(C#N)C#N)sc23)cc1,[C][C][C][C][C][Branch1][Ring1][C][C][C][S][C][=C][C][=C][Branch2][=Branch2][=Branch2][C][=C][C][=C][Branch2][=Branch1][Branch2][C][=C][C][=C][Branch2][Branch1][=N][C][S][C][Branch1][O][C][=C][C][=C][Branch1][C][C][S][Ring1][=Branch1][=C][C][=Ring1][O][C][=Branch1][C][=O][C][=C][Branch1][O][C][C][Branch1][Ring1][C][C][C][C][C][C][S][C][Branch1][O][C][C][Branch1][Ring1][C][C][C][C][C][C][=C][Ring2][Ring1][Branch1][C][Ring2][Ring1][#Branch2][=O][S][Ring2][Ring2][=Branch2][S][C][Ring2][Ring2][=C][=C][Branch2][Ring1][Branch1][C][=C][C][=C][Branch1][N][S][C][C][Branch1][Ring1][C][C][C][C][C][C][S][Ring1][=C][C][C][=C][Branch1][C][C][S][C][Ring2][=Branch1][Ring2][=Ring1][=Branch1][S][Ring2][=Branch1][=Branch2].[C][C][C][C][C][C][S][C][=C][C][=C][Branch2][N][C][C][Branch2][Ring1][C][C][=C][C][=C][Branch1][Branch2][S][C][C][C][C][C][C][C][=C][Ring1][=N][C][=C][C][=C][Branch2][Ring2][P][C][=C][Ring1][=Branch1][C][S][C][C][=C][Branch2][Ring1][=Branch2][/C][=C][\C][=Branch1][C][=O][C][=C][C][=C][C][=C][Ring1][=Branch1][C][Ring1][#Branch2][=C][Branch1][Ring1][C][#N][C][#N][S][C][=Ring2][Ring1][Branch1][C][=Ring2][Ring1][Branch2][Ring2][Ring2][N][C][Branch2][Ring1][C][C][=C][C][=C][Branch1][Branch2][S][C][C][C][C][C][C][C][=C][Ring1][=N][Branch2][Ring1][C][C][=C][C][=C][Branch1][Branch2][S][C][C][C][C][C][C][C][=C][Ring1][=N][C][=C][Ring2][Branch1][=Branch2][S][C][C][=C][Branch2][Ring1][=Branch2][/C][=C][\C][=Branch1][C][=O][C][=C][C][=C][C][=C][Ring1][=Branch1][C][Ring1][#Branch2][=C][Branch1][Ring1][C][#N][C][#N][S][C][Ring2][Ring1][Branch2][=Ring2][Ring1][Branch1][C][=C][Ring2][Branch2][Branch1],{CCCCC(CC)CSc1ccc(-c2c3cc(-c4ccc(-c5sc(-c6ccc([$])s6)c6c5C(=O)c5c(CC(CC)CCCC)sc(CC(CC)CCCC)c5C6=O)s4)sc3c(-c3ccc(SCC(CC)CCCC)s3)c3cc([$])sc23)s1}.CCCCCCSc1ccc(C2(c3ccc(SCCCCCC)cc3)c3cc4c(cc3-c3sc5cc(/C=C6\C(=O)c7ccccc7C6=C(C#N)C#N)sc5c32)C(c2ccc(SCCCCCC)cc2)(c2ccc(SCCCCCC)cc2)c2c-4sc3cc(/C=C4\C(=O)c5ccccc5C4=C(C#N)C#N)sc23)cc1
PBDB-ST,ITIC-SC8,-5.37,-3.59,-5.7,-3.9,1.0,DCB,CBA,110.0,7.79,7.79,0.9,14.43,60.0,CCCCC(CC)CSc1ccc(-c2c3cc(-c4ccc(-c5sc(-c6ccc(C)s6)c6c5C(=O)c5c(CC(CC)CCCC)sc(CC(CC)CCCC)c5C6=O)s4)sc3c(-c3ccc(SCC(CC)CCCC)s3)c3cc(C)sc23)s1.CCCCCCCCSc1ccc(C2(c3ccc(SCCCCCCCC)cc3)c3cc4c(cc3-c3sc5cc(/C=C6\C(=O)c7ccccc7C6=C(C#N)C#N)sc5c32)C(c2ccc(SCCCCCCCC)cc2)(c2ccc(SCCCCCCCC)cc2)c2c-4sc3cc(/C=C4\C(=O)c5ccccc5C4=C(C#N)C#N)sc23)cc1,[C][C][C][C][C][Branch1][Ring1][C][C][C][S][C][=C][C][=C][Branch2][=Branch2][=Branch2][C][=C][C][=C][Branch2][=Branch1][Branch2][C][=C][C][=C][Branch2][Branch1][=N][C][S][C][Branch1][O][C][=C][C][=C][Branch1][C][C][S][Ring1][=Branch1][=C][C][=Ring1][O][C][=Branch1][C][=O][C][=C][Branch1][O][C][C][Branch1][Ring1][C][C][C][C][C][C][S][C][Branch1][O][C][C][Branch1][Ring1][C][C][C][C][C][C][=C][Ring2][Ring1][Branch1][C][Ring2][Ring1][#Branch2][=O][S][Ring2][Ring2][=Branch2][S][C][Ring2][Ring2][=C][=C][Branch2][Ring1][Branch1][C][=C][C][=C][Branch1][N][S][C][C][Branch1][Ring1][C][C][C][C][C][C][S][Ring1][=C][C][C][=C][Branch1][C][C][S][C][Ring2][=Branch1][Ring2][=Ring1][=Branch1][S][Ring2][=Branch1][=Branch2].[C][C][C][C][C][C][C][C][S][C][=C][C][=C][Branch2][N][Branch2][C][Branch2][Ring1][Ring2][C][=C][C][=C][Branch1][#Branch2][S][C][C][C][C][C][C][C][C][C][=C][Ring1][#C][C][=C][C][=C][Branch2][Ring2][P][C][=C][Ring1][=Branch1][C][S][C][C][=C][Branch2][Ring1][=Branch2][/C][=C][\C][=Branch1][C][=O][C][=C][C][=C][C][=C][Ring1][=Branch1][C][Ring1][#Branch2][=C][Branch1][Ring1][C][#N][C][#N][S][C][=Ring2][Ring1][Branch1][C][=Ring2][Ring1][Branch2][Ring2][Ring2][=C][C][Branch2][Ring1][Ring2][C][=C][C][=C][Branch1][#Branch2][S][C][C][C][C][C][C][C][C][C][=C][Ring1][#C][Branch2][Ring1][Ring2][C][=C][C][=C][Branch1][#Branch2][S][C][C][C][C][C][C][C][C][C][=C][Ring1][#C][C][=C][Ring2][Branch1][=N][S][C][C][=C][Branch2][Ring1][=Branch2][/C][=C][\C][=Branch1][C][=O][C][=C][C][=C][C][=C][Ring1][=Branch1][C][Ring1][#Branch2][=C][Branch1][Ring1][C][#N][C][#N][S][C][Ring2][Ring1][Branch2][=Ring2][Ring1][Branch1][C][=C][Ring2][Branch2][O],{CCCCC(CC)CSc1ccc(-c2c3cc(-c4ccc(-c5sc(-c6ccc([$])s6)c6c5C(=O)c5c(CC(CC)CCCC)sc(CC(CC)CCCC)c5C6=O)s4)sc3c(-c3ccc(SCC(CC)CCCC)s3)c3cc([$])sc23)s1}.CCCCCCCCSc1ccc(C2(c3ccc(SCCCCCCCC)cc3)c3cc4c(cc3-c3sc5cc(/C=C6\C(=O)c7ccccc7C6=C(C#N)C#N)sc5c32)C(c2ccc(SCCCCCCCC)cc2)(c2ccc(SCCCCCCCC)cc2)c2c-4sc3cc(/C=C4\C(=O)c5ccccc5C4=C(C#N)C#N)sc23)cc1
PBDB-ST,ITIC-SC2C6,-5.37,-3.59,-5.74,-3.86,1.0,DCB,CBA,110.0,9.16,9.02,0.92,15.32,64.0,CCCCC(CC)CSc1ccc(-c2c3cc(-c4ccc(-c5sc(-c6ccc(C)s6)c6c5C(=O)c5c(CC(CC)CCCC)sc(CC(CC)CCCC)c5C6=O)s4)sc3c(-c3ccc(SCC(CC)CCCC)s3)c3cc(C)sc23)s1.CCCCC(CC)CSc1ccc(C2(c3ccc(SCC(CC)CCCC)cc3)c3cc4c(cc3-c3sc5cc(/C=C6\C(=O)c7ccccc7C6=C(C#N)C#N)sc5c32)C(c2ccc(SCC(CC)CCCC)cc2)(c2ccc(SCC(CC)CCCC)cc2)c2c-4sc3cc(/C=C4\C(=O)c5ccccc5C4=C(C#N)C#N)sc23)cc1,[C][C][C][C][C][Branch1][Ring1][C][C][C][S][C][=C][C][=C][Branch2][=Branch2][=Branch2][C][=C][C][=C][Branch2][=Branch1][Branch2][C][=C][C][=C][Branch2][Branch1][=N][C][S][C][Branch1][O][C][=C][C][=C][Branch1][C][C][S][Ring1][=Branch1][=C][C][=Ring1][O][C][=Branch1][C][=O][C][=C][Branch1][O][C][C][Branch1][Ring1][C][C][C][C][C][C][S][C][Branch1][O][C][C][Branch1][Ring1][C][C][C][C][C][C][=C][Ring2][Ring1][Branch1][C][Ring2][Ring1][#Branch2][=O][S][Ring2][Ring2][=Branch2][S][C][Ring2][Ring2][=C][=C][Branch2][Ring1][Branch1][C][=C][C][=C][Branch1][N][S][C][C][Branch1][Ring1][C][C][C][C][C][C][S][Ring1][=C][C][C][=C][Branch1][C][C][S][C][Ring2][=Branch1][Ring2][=Ring1][=Branch1][S][Ring2][=Branch1][=Branch2].[C][C][C][C][C][Branch1][Ring1][C][C][C][S][C][=C][C][=C][Branch2][N][=C][C][Branch2][Ring1][=Branch1][C][=C][C][=C][Branch1][N][S][C][C][Branch1][Ring1][C][C][C][C][C][C][C][=C][Ring1][#C][C][=C][C][=C][Branch2][Ring2][P][C][=C][Ring1][=Branch1][C][S][C][C][=C][Branch2][Ring1][=Branch2][/C][=C][\C][=Branch1][C][=O][C][=C][C][=C][C][=C][Ring1][=Branch1][C][Ring1][#Branch2][=C][Branch1][Ring1][C][#N][C][#N][S][C][=Ring2][Ring1][Branch1][C][=Ring2][Ring1][Branch2][Ring2][Ring2][=C][C][Branch2][Ring1][=Branch1][C][=C][C][=C][Branch1][N][S][C][C][Branch1][Ring1][C][C][C][C][C][C][C][=C][Ring1][#C][Branch2][Ring1][=Branch1][C][=C][C][=C][Branch1][N][S][C][C][Branch1][Ring1][C][C][C][C][C][C][C][=C][Ring1][#C][C][=C][Ring2][Branch1][=N][S][C][C][=C][Branch2][Ring1][=Branch2][/C][=C][\C][=Branch1][C][=O][C][=C][C][=C][C][=C][Ring1][=Branch1][C][Ring1][#Branch2][=C][Branch1][Ring1][C][#N][C][#N][S][C][Ring2][Ring1][Branch2][=Ring2][Ring1][Branch1][C][=C][Ring2][Branch2][O],{CCCCC(CC)CSc1ccc(-c2c3cc(-c4ccc(-c5sc(-c6ccc([$])s6)c6c5C(=O)c5c(CC(CC)CCCC)sc(CC(CC)CCCC)c5C6=O)s4)sc3c(-c3ccc(SCC(CC)CCCC)s3)c3cc([$])sc23)s1}.CCCCC(CC)CSc1ccc(C2(c3ccc(SCC(CC)CCCC)cc3)c3cc4c(cc3-c3sc5cc(/C=C6\C(=O)c7ccccc7C6=C(C#N)C#N)sc5c32)C(c2ccc(SCC(CC)CCCC)cc2)(c2ccc(SCC(CC)CCCC)cc2)c2c-4sc3cc(/C=C4\C(=O)c5ccccc5C4=C(C#N)C#N)sc23)cc1
PTB7-Th,ITIC-Th,-5.21,-3.542368421052632,-5.673333333333334,-3.908888888888889,0.769,o-DCB,CN,25.0,8.7,8.67,0.8,15.93,68.0,CCCCC(CC)COC(=O)c1sc2c(-c3cc4c(-c5ccc(CC(CC)CCCC)s5)c5sc(C)cc5c(-c5ccc(CC(CC)CCCC)s5)c4s3)sc(C)c2c1F.CCCCCCc1ccc(C2(c3ccc(CCCCCC)s3)c3cc4c(cc3-c3sc5cc(/C=C6\C(=O)c7ccccc7C6=C(C#N)C#N)sc5c32)C(c2ccc(CCCCCC)s2)(c2ccc(CCCCCC)s2)c2c-4sc3cc(/C=C4\C(=O)c5ccccc5C4=C(C#N)C#N)sc23)s1,[C][C][C][C][C][Branch1][Ring1][C][C][C][O][C][=Branch1][C][=O][C][S][C][=C][Branch2][=Branch1][Ring2][C][=C][C][=C][Branch2][Ring1][Ring2][C][=C][C][=C][Branch1][O][C][C][Branch1][Ring1][C][C][C][C][C][C][S][Ring1][=N][C][S][C][Branch1][C][C][=C][C][=Ring1][=Branch1][C][Branch2][Ring1][Ring2][C][=C][C][=C][Branch1][O][C][C][Branch1][Ring1][C][C][C][C][C][C][S][Ring1][=N][=C][Ring2][Ring2][Ring2][S][Ring2][Ring2][#Branch1][S][C][Branch1][C][C][=C][Ring2][Ring2][=N][C][=Ring2][Ring2][S][F].[C][C][C][C][C][C][C][=C][C][=C][Branch2][O][=Branch2][C][Branch1][S][C][=C][C][=C][Branch1][#Branch1][C][C][C][C][C][C][S][Ring1][O][C][=C][C][=C][Branch2][Ring2][P][C][=C][Ring1][=Branch1][C][S][C][C][=C][Branch2][Ring1][=Branch2][/C][=C][\C][=Branch1][C][=O][C][=C][C][=C][C][=C][Ring1][=Branch1][C][Ring1][#Branch2][=C][Branch1][Ring1][C][#N][C][#N][S][C][=Ring2][Ring1][Branch1][C][=Ring2][Ring1][Branch2][Ring2][Ring2][#Branch2][C][Branch1][S][C][=C][C][=C][Branch1][#Branch1][C][C][C][C][C][C][S][Ring1][O][Branch1][S][C][=C][C][=C][Branch1][#Branch1][C][C][C][C][C][C][S][Ring1][O][C][=C][Ring2][Branch1][Branch1][S][C][C][=C][Branch2][Ring1][=Branch2][/C][=C][\C][=Branch1][C][=O][C][=C][C][=C][C][=C][Ring1][=Branch1][C][Ring1][#Branch2][=C][Branch1][Ring1][C][#N][C][#N][S][C][Ring2][Ring1][Branch2][=Ring2][Ring1][Branch1][S][Ring2][#Branch1][=C],{CCCCC(CC)COC(=O)c1sc2c(-c3cc4c(-c5ccc(CC(CC)CCCC)s5)c5sc([$])cc5c(-c5ccc(CC(CC)CCCC)s5)c4s3)sc([$])c2c1F}.CCCCCCc1ccc(C2(c3ccc(CCCCCC)s3)c3cc4c(cc3-c3sc5cc(/C=C6\C(=O)c7ccccc7C6=C(C#N)C#N)sc5c32)C(c2ccc(CCCCCC)s2)(c2ccc(CCCCCC)s2)c2c-4sc3cc(/C=C4\C(=O)c5ccccc5C4=C(C#N)C#N)sc23)s1
PDBT-T1,ITIC-Th,-5.36,-3.43,-5.673333333333334,-3.908888888888889,1.0,CF,CN,25.0,9.6,9.59,0.88,16.24,67.1,CCCCCCCCc1ccc(-c2c3sc4cc(-c5ccc(-c6sc(-c7ccc(C)s7)c7c6C(=O)c6c(CC(CC)CCCC)sc(CC(CC)CCCC)c6C7=O)s5)sc4c3c(-c3ccc(CCCCCCCC)s3)c3sc4cc(C)sc4c23)s1.CCCCCCc1ccc(C2(c3ccc(CCCCCC)s3)c3cc4c(cc3-c3sc5cc(/C=C6\C(=O)c7ccccc7C6=C(C#N)C#N)sc5c32)C(c2ccc(CCCCCC)s2)(c2ccc(CCCCCC)s2)c2c-4sc3cc(/C=C4\C(=O)c5ccccc5C4=C(C#N)C#N)sc23)s1,[C][C][C][C][C][C][C][C][C][=C][C][=C][Branch2][=Branch2][P][C][=C][S][C][C][=C][Branch2][=Branch1][Branch2][C][=C][C][=C][Branch2][Branch1][=N][C][S][C][Branch1][O][C][=C][C][=C][Branch1][C][C][S][Ring1][=Branch1][=C][C][=Ring1][O][C][=Branch1][C][=O][C][=C][Branch1][O][C][C][Branch1][Ring1][C][C][C][C][C][C][S][C][Branch1][O][C][C][Branch1][Ring1][C][C][C][C][C][C][=C][Ring2][Ring1][Branch1][C][Ring2][Ring1][#Branch2][=O][S][Ring2][Ring2][=Branch2][S][C][=Ring2][Ring2][=C][C][Ring2][Ring2][P][=C][Branch2][Ring1][C][C][=C][C][=C][Branch1][=Branch2][C][C][C][C][C][C][C][C][S][Ring1][=N][C][S][C][C][=C][Branch1][C][C][S][C][=Ring1][=Branch1][C][Ring2][=Branch1][=Branch2][=Ring1][=Branch2][S][Ring2][=Branch1][=C].[C][C][C][C][C][C][C][=C][C][=C][Branch2][O][=Branch2][C][Branch1][S][C][=C][C][=C][Branch1][#Branch1][C][C][C][C][C][C][S][Ring1][O][C][=C][C][=C][Branch2][Ring2][P][C][=C][Ring1][=Branch1][C][S][C][C][=C][Branch2][Ring1][=Branch2][/C][=C][\C][=Branch1][C][=O][C][=C][C][=C][C][=C][Ring1][=Branch1][C][Ring1][#Branch2][=C][Branch1][Ring1][C][#N][C][#N][S][C][=Ring2][Ring1][Branch1][C][=Ring2][Ring1][Branch2][Ring2][Ring2][#Branch2][C][Branch1][S][C][=C][C][=C][Branch1][#Branch1][C][C][C][C][C][C][S][Ring1][O][Branch1][S][C][=C][C][=C][Branch1][#Branch1][C][C][C][C][C][C][S][Ring1][O][C][=C][Ring2][Branch1][Branch1][S][C][C][=C][Branch2][Ring1][=Branch2][/C][=C][\C][=Branch1][C][=O][C][=C][C][=C][C][=C][Ring1][=Branch1][C][Ring1][#Branch2][=C][Branch1][Ring1][C][#N][C][#N][S][C][Ring2][Ring1][Branch2][=Ring2][Ring1][Branch1][S][Ring2][#Branch1][=C],{CCCCCCCCc1ccc(-c2c3sc4cc(-c5ccc(-c6sc(-c7ccc([$])s7)c7c6C(=O)c6c(CC(CC)CCCC)sc(CC(CC)CCCC)c6C7=O)s5)sc4c3c(-c3ccc(CCCCCCCC)s3)c3sc4cc([$])sc4c23)s1}.CCCCCCc1ccc(C2(c3ccc(CCCCCC)s3)c3cc4c(cc3-c3sc5cc(/C=C6\C(=O)c7ccccc7C6=C(C#N)C#N)sc5c32)C(c2ccc(CCCCCC)s2)(c2ccc(CCCCCC)s2)c2c-4sc3cc(/C=C4\C(=O)c5ccccc5C4=C(C#N)C#N)sc23)s1
PBDB-T,IT-M,-5.297777777777778,-3.4170000000000003,-5.513571428571429,-3.808,1.0,CB,DIO,100.0,12.1,12.1,0.953,17.34,73.2,CCCCC(CC)Cc1ccc(-c2c3cc(-c4ccc(-c5sc(-c6ccc(C)s6)c6c5C(=O)c5c(CC(CC)CCCC)sc(CC(CC)CCCC)c5C6=O)s4)sc3c(-c3ccc(CC(CC)CCCC)s3)c3cc(C)sc23)s1.CCCCCCc1ccc(C2(c3ccc(CCCCCC)cc3)c3cc4c(cc3-c3sc5cc(/C=C6\C(=O)c7ccc(C)cc7C6=C(C#N)C#N)sc5c32)C(c2ccc(CCCCCC)cc2)(c2ccc(CCCCCC)cc2)c2c-4sc3cc(/C=C4\C(=O)c5ccc(C)cc5C4=C(C#N)C#N)sc23)cc1,[C][C][C][C][C][Branch1][Ring1][C][C][C][C][=C][C][=C][Branch2][=Branch2][Branch2][C][=C][C][=C][Branch2][=Branch1][Branch2][C][=C][C][=C][Branch2][Branch1][=N][C][S][C][Branch1][O][C][=C][C][=C][Branch1][C][C][S][Ring1][=Branch1][=C][C][=Ring1][O][C][=Branch1][C][=O][C][=C][Branch1][O][C][C][Branch1][Ring1][C][C][C][C][C][C][S][C][Branch1][O][C][C][Branch1][Ring1][C][C][C][C][C][C][=C][Ring2][Ring1][Branch1][C][Ring2][Ring1][#Branch2][=O][S][Ring2][Ring2][=Branch2][S][C][Ring2][Ring2][=C][=C][Branch2][Ring1][Ring2][C][=C][C][=C][Branch1][O][C][C][Branch1][Ring1][C][C][C][C][C][C][S][Ring1][=N][C][C][=C][Branch1][C][C][S][C][Ring2][=Branch1][Ring1][=Ring1][=Branch1][S][Ring2][=Branch1][Branch2].[C][C][C][C][C][C][C][=C][C][=C][Branch2][N][C][C][Branch1][P][C][=C][C][=C][Branch1][#Branch1][C][C][C][C][C][C][C][=C][Ring1][N][C][=C][C][=C][Branch2][Branch1][Ring2][C][=C][Ring1][=Branch1][C][S][C][C][=C][Branch2][Ring1][N][/C][=C][\C][=Branch1][C][=O][C][=C][C][=C][Branch1][C][C][C][=C][Ring1][#Branch1][C][Ring1][O][=C][Branch1][Ring1][C][#N][C][#N][S][C][=Ring2][Ring1][=Branch1][C][=Ring2][Ring1][=Branch2][Ring2][Ring2][N][C][Branch1][P][C][=C][C][=C][Branch1][#Branch1][C][C][C][C][C][C][C][=C][Ring1][N][Branch1][P][C][=C][C][=C][Branch1][#Branch1][C][C][C][C][C][C][C][=C][Ring1][N][C][=C][Ring2][Branch1][Branch2][S][C][C][=C][Branch2][Ring1][N][/C][=C][\C][=Branch1][C][=O][C][=C][C][=C][Branch1][C][C][C][=C][Ring1][#Branch1][C][Ring1][O][=C][Branch1][Ring1][C][#N][C][#N][S][C][Ring2][Ring1][=Branch2][=Ring2][Ring1][=Branch1][C][=C][Ring2][Branch2][Ring2],{CCCCC(CC)Cc1ccc(-c2c3cc(-c4ccc(-c5sc(-c6ccc([$])s6)c6c5C(=O)c5c(CC(CC)CCCC)sc(CC(CC)CCCC)c5C6=O)s4)sc3c(-c3ccc(CC(CC)CCCC)s3)c3cc([$])sc23)s1}.CCCCCCc1ccc(C2(c3ccc(CCCCCC)cc3)c3cc4c(cc3-c3sc5cc(/C=C6\C(=O)c7ccc(C)cc7C6=C(C#N)C#N)sc5c32)C(c2ccc(CCCCCC)cc2)(c2ccc(CCCCCC)cc2)c2c-4sc3cc(/C=C4\C(=O)c5ccc(C)cc5C4=C(C#N)C#N)sc23)cc1
PBDB-T,ITIC,-5.297777777777778,-3.4170000000000003,-5.574146341463415,-3.915,1.0,CB,DIO,160.0,10.02,10.02,0.86,18.12,64.29,CCCCC(CC)Cc1ccc(-c2c3cc(-c4ccc(-c5sc(-c6ccc(C)s6)c6c5C(=O)c5c(CC(CC)CCCC)sc(CC(CC)CCCC)c5C6=O)s4)sc3c(-c3ccc(CC(CC)CCCC)s3)c3cc(C)sc23)s1.CCCCCCc1ccc(C2(c3ccc(CCCCCC)cc3)c3cc4c(cc3-c3sc5cc(/C=C6\C(=O)c7ccccc7C6=C(C#N)C#N)sc5c32)C(c2ccc(CCCCCC)cc2)(c2ccc(CCCCCC)cc2)c2c-4sc3cc(/C=C4\C(=O)c5ccccc5C4=C(C#N)C#N)sc23)cc1,[C][C][C][C][C][Branch1][Ring1][C][C][C][C][=C][C][=C][Branch2][=Branch2][Branch2][C][=C][C][=C][Branch2][=Branch1][Branch2][C][=C][C][=C][Branch2][Branch1][=N][C][S][C][Branch1][O][C][=C][C][=C][Branch1][C][C][S][Ring1][=Branch1][=C][C][=Ring1][O][C][=Branch1][C][=O][C][=C][Branch1][O][C][C][Branch1][Ring1][C][C][C][C][C][C][S][C][Branch1][O][C][C][Branch1][Ring1][C][C][C][C][C][C][=C][Ring2][Ring1][Branch1][C][Ring2][Ring1][#Branch2][=O][S][Ring2][Ring2][=Branch2][S][C][Ring2][Ring2][=C][=C][Branch2][Ring1][Ring2][C][=C][C][=C][Branch1][O][C][C][Branch1][Ring1][C][C][C][C][C][C][S][Ring1][=N][C][C][=C][Branch1][C][C][S][C][Ring2][=Branch1][Ring1][=Ring1][=Branch1][S][Ring2][=Branch1][Branch2].[C][C][C][C][C][C][C][=C][C][=C][Branch2][O][N][C][Branch1][P][C][=C][C][=C][Branch1][#Branch1][C][C][C][C][C][C][C][=C][Ring1][N][C][=C][C][=C][Branch2][Ring2][P][C][=C][Ring1][=Branch1][C][S][C][C][=C][Branch2][Ring1][=Branch2][/C][=C][\C][=Branch1][C][=O][C][=C][C][=C][C][=C][Ring1][=Branch1][C][Ring1][#Branch2][=C][Branch1][Ring1][C][#N][C][#N][S][C][=Ring2][Ring1][Branch1][C][=Ring2][Ring1][Branch2][Ring2][Ring2][O][C][Branch1][P][C][=C][C][=C][Branch1][#Branch1][C][C][C][C][C][C][C][=C][Ring1][N][Branch1][P][C][=C][C][=C][Branch1][#Branch1][C][C][C][C][C][C][C][=C][Ring1][N][C][=C][Ring2][Branch1][#Branch1][S][C][C][=C][Branch2][Ring1][=Branch2][/C][=C][\C][=Branch1][C][=O][C][=C][C][=C][C][=C][Ring1][=Branch1][C][Ring1][#Branch2][=C][Branch1][Ring1][C][#N][C][#N][S][C][Ring2][Ring1][Branch2][=Ring2][Ring1][Branch1][C][=C][Ring2][Branch2][C],{CCCCC(CC)Cc1ccc(-c2c3cc(-c4ccc(-c5sc(-c6ccc([$])s6)c6c5C(=O)c5c(CC(CC)CCCC)sc(CC(CC)CCCC)c5C6=O)s4)sc3c(-c3ccc(CC(CC)CCCC)s3)c3cc([$])sc23)s1}.CCCCCCc1ccc(C2(c3ccc(CCCCCC)cc3)c3cc4c(cc3-c3sc5cc(/C=C6\C(=O)c7ccccc7C6=C(C#N)C#N)sc5c32)C(c2ccc(CCCCCC)cc2)(c2ccc(CCCCCC)cc2)c2c-4sc3cc(/C=C4\C(=O)c5ccccc5C4=C(C#N)C#N)sc23)cc1