Donor,Acceptor,HOMO_D_eV,LUMO_D_eV,HOMO_A_eV,LUMO_A_eV,D_A_ratio_m_m,solvent,total_solids_conc_mg_mL,solvent_additive,annealing_temperature,PCE_percent,calc_PCE_percent,Voc_V,Jsc_mA_cm_pow_neg2,FF_percent,DA_SMILES,DA_SELFIES,DA_BigSMILES
PBDB-TF,IT-4F,-5.498461538461539,-3.65,-5.670384615384615,-4.058076923076923,1.0,CB,20.0,DIO,100.0,13.7,1365.2562,0.87,20.38,77.0,Cc1ccc(-c2sc(-c3ccc(-c4cc5c(-c6cc(F)c([Cr])s6)c6sc(C)cc6c(-c6cc(F)c([Cr])s6)c5s4)s3)c3c2C(=O)c2c([Cr])sc([Cr])c2C3=O)s1.N#CC(C#N)=C1/C(=C/c2cc3sc4c(c3s2)C(c2ccc([Mo])cc2)(c2ccc([Mo])cc2)c2cc3c(cc2-4)C(c2ccc([Mo])cc2)(c2ccc([Mo])cc2)c2c-3sc3cc(/C=C4\C(=O)c5cc(F)c(F)cc5C4=C(C#N)C#N)sc23)C(=O)c2cc(F)c(F)cc21,[C][C][=C][C][=C][Branch2][#Branch1][P][C][S][C][Branch2][Branch1][P][C][=C][C][=C][Branch2][Branch1][=Branch1][C][=C][C][=C][Branch1][=C][C][=C][C][Branch1][C][F][=C][Branch1][C][Cr][S][Ring1][#Branch1][C][S][C][Branch1][C][C][=C][C][=Ring1][=Branch1][C][Branch1][=C][C][=C][C][Branch1][C][F][=C][Branch1][C][Cr][S][Ring1][#Branch1][=C][Ring2][Ring1][Branch2][S][Ring2][Ring1][O][S][Ring2][Ring1][S][=C][C][=Ring2][Ring2][Branch1][C][=Branch1][C][=O][C][=C][Branch1][C][Cr][S][C][Branch1][C][Cr][=C][Ring1][#Branch1][C][Ring1][N][=O][S][Ring2][Branch1][Branch1].[N][#C][C][Branch1][Ring1][C][#N][=C][/C][=Branch2][#Branch2][Branch1][=C][/C][=C][C][S][C][=C][Branch1][#Branch1][C][=Ring1][Branch1][S][Ring1][Branch2][C][Branch1][N][C][=C][C][=C][Branch1][C][Mo][C][=C][Ring1][#Branch1][Branch1][N][C][=C][C][=C][Branch1][C][Mo][C][=C][Ring1][#Branch1][C][=C][C][=C][Branch1][Branch2][C][=C][Ring1][=Branch1][Ring2][Ring1][=Branch2][C][Branch1][N][C][=C][C][=C][Branch1][C][Mo][C][=C][Ring1][#Branch1][Branch1][N][C][=C][C][=C][Branch1][C][Mo][C][=C][Ring1][#Branch1][C][=C][Ring2][Ring1][Branch1][S][C][C][=C][Branch2][Ring1][#C][/C][=C][\C][=Branch1][C][=O][C][=C][C][Branch1][C][F][=C][Branch1][C][F][C][=C][Ring1][Branch2][C][Ring1][N][=C][Branch1][Ring1][C][#N][C][#N][S][C][Ring2][Ring1][#Branch2][=Ring2][Ring1][#Branch1][C][=Branch1][C][=O][C][=C][C][Branch1][C][F][=C][Branch1][C][F][C][=C][Ring1][Branch2][Ring2][#Branch1][Ring1],{[$]c1ccc(-c2sc(-c3ccc(-c4cc5c(-c6cc(F)c([Cr])s6)c6sc([$])cc6c(-c6cc(F)c([Cr])s6)c5s4)s3)c3c2C(=O)c2c([Cr])sc([Cr])c2C3=O)s1}.N#CC(C#N)=C1/C(=C/c2cc3sc4c(c3s2)C(c2ccc([Mo])cc2)(c2ccc([Mo])cc2)c2cc3c(cc2-4)C(c2ccc([Mo])cc2)(c2ccc([Mo])cc2)c2c-3sc3cc(/C=C4\C(=O)c5cc(F)c(F)cc5C4=C(C#N)C#N)sc23)C(=O)c2cc(F)c(F)cc21
PBDB-TF,HF-PCIC,-5.498461538461539,-3.65,-5.53,-3.83,0.833,CB,20.0,CN,110.0,10.97,1066.688664,0.92,16.01,72.42,Cc1ccc(-c2sc(-c3ccc(-c4cc5c(-c6cc(F)c([Cr])s6)c6sc(C)cc6c(-c6cc(F)c([Cr])s6)c5s4)s3)c3c2C(=O)c2c([Cr])sc([Cr])c2C3=O)s1.N#CC(C#N)=C1/C(=C/c2cc3c(s2)-c2sc(-c4cc(F)c(-c5cc6c(s5)-c5sc(/C=C7\C(=O)c8cc(F)c(F)cc8C7=C(C#N)C#N)cc5C6([Cr])[Cr])cc4F)cc2C3([Cr])[Cr])C(=O)c2cc(F)c(F)cc21,[C][C][=C][C][=C][Branch2][#Branch1][P][C][S][C][Branch2][Branch1][P][C][=C][C][=C][Branch2][Branch1][=Branch1][C][=C][C][=C][Branch1][=C][C][=C][C][Branch1][C][F][=C][Branch1][C][Cr][S][Ring1][#Branch1][C][S][C][Branch1][C][C][=C][C][=Ring1][=Branch1][C][Branch1][=C][C][=C][C][Branch1][C][F][=C][Branch1][C][Cr][S][Ring1][#Branch1][=C][Ring2][Ring1][Branch2][S][Ring2][Ring1][O][S][Ring2][Ring1][S][=C][C][=Ring2][Ring2][Branch1][C][=Branch1][C][=O][C][=C][Branch1][C][Cr][S][C][Branch1][C][Cr][=C][Ring1][#Branch1][C][Ring1][N][=O][S][Ring2][Branch1][Branch1].[N][#C][C][Branch1][Ring1][C][#N][=C][/C][=Branch2][Branch2][Branch2][=C][/C][=C][C][=C][Branch1][Ring2][S][Ring1][Branch1][C][S][C][Branch2][=Branch1][O][C][=C][C][Branch1][C][F][=C][Branch2][Branch1][O][C][=C][C][=C][Branch1][Ring2][S][Ring1][Branch1][C][S][C][Branch2][Ring1][#C][/C][=C][\C][=Branch1][C][=O][C][=C][C][Branch1][C][F][=C][Branch1][C][F][C][=C][Ring1][Branch2][C][Ring1][N][=C][Branch1][Ring1][C][#N][C][#N][=C][C][=Ring2][Ring1][#Branch1][C][Ring2][Ring1][O][Branch1][C][Cr][Cr][C][=C][Ring2][Ring2][=Branch1][F][=C][C][=Ring2][Ring2][N][C][Ring2][Ring2][S][Branch1][C][Cr][Cr][C][=Branch1][C][=O][C][=C][C][Branch1][C][F][=C][Branch1][C][F][C][=C][Ring1][Branch2][Ring2][Branch1][P],{[$]c1ccc(-c2sc(-c3ccc(-c4cc5c(-c6cc(F)c([Cr])s6)c6sc([$])cc6c(-c6cc(F)c([Cr])s6)c5s4)s3)c3c2C(=O)c2c([Cr])sc([Cr])c2C3=O)s1}.N#CC(C#N)=C1/C(=C/c2cc3c(s2)-c2sc(-c4cc(F)c(-c5cc6c(s5)-c5sc(/C=C7\C(=O)c8cc(F)c(F)cc8C7=C(C#N)C#N)cc5C6([Cr])[Cr])cc4F)cc2C3([Cr])[Cr])C(=O)c2cc(F)c(F)cc21
PBDB-TF,HFO-PCIC,-5.498461538461539,-3.65,-5.5,-3.81,0.833,CB,20.0,CN,110.0,8.36,833.181234,0.93,12.62,70.99,Cc1ccc(-c2sc(-c3ccc(-c4cc5c(-c6cc(F)c([Cr])s6)c6sc(C)cc6c(-c6cc(F)c([Cr])s6)c5s4)s3)c3c2C(=O)c2c([Cr])sc([Cr])c2C3=O)s1.COc1c(F)c(-c2cc3c(s2)-c2sc(/C=C4\C(=O)c5cc(F)c(F)cc5C4=C(C#N)C#N)cc2C3([Cr])[Cr])c(OC)c(F)c1-c1cc2c(s1)-c1sc(/C=C3\C(=O)c4cc(F)c(F)cc4C3=C(C#N)C#N)cc1C2([Cr])[Cr],[C][C][=C][C][=C][Branch2][#Branch1][P][C][S][C][Branch2][Branch1][P][C][=C][C][=C][Branch2][Branch1][=Branch1][C][=C][C][=C][Branch1][=C][C][=C][C][Branch1][C][F][=C][Branch1][C][Cr][S][Ring1][#Branch1][C][S][C][Branch1][C][C][=C][C][=Ring1][=Branch1][C][Branch1][=C][C][=C][C][Branch1][C][F][=C][Branch1][C][Cr][S][Ring1][#Branch1][=C][Ring2][Ring1][Branch2][S][Ring2][Ring1][O][S][Ring2][Ring1][S][=C][C][=Ring2][Ring2][Branch1][C][=Branch1][C][=O][C][=C][Branch1][C][Cr][S][C][Branch1][C][Cr][=C][Ring1][#Branch1][C][Ring1][N][=O][S][Ring2][Branch1][Branch1].[C][O][C][=C][Branch1][C][F][C][Branch2][Branch1][O][C][=C][C][=C][Branch1][Ring2][S][Ring1][Branch1][C][S][C][Branch2][Ring1][#C][/C][=C][\C][=Branch1][C][=O][C][=C][C][Branch1][C][F][=C][Branch1][C][F][C][=C][Ring1][Branch2][C][Ring1][N][=C][Branch1][Ring1][C][#N][C][#N][=C][C][=Ring2][Ring1][#Branch1][C][Ring2][Ring1][O][Branch1][C][Cr][Cr][=C][Branch1][Ring1][O][C][C][Branch1][C][F][=C][Ring2][Ring2][=Branch2][C][=C][C][=C][Branch1][Ring2][S][Ring1][Branch1][C][S][C][Branch2][Ring1][#C][/C][=C][\C][=Branch1][C][=O][C][=C][C][Branch1][C][F][=C][Branch1][C][F][C][=C][Ring1][Branch2][C][Ring1][N][=C][Branch1][Ring1][C][#N][C][#N][=C][C][=Ring2][Ring1][#Branch1][C][Ring2][Ring1][O][Branch1][C][Cr][Cr],{[$]c1ccc(-c2sc(-c3ccc(-c4cc5c(-c6cc(F)c([Cr])s6)c6sc([$])cc6c(-c6cc(F)c([Cr])s6)c5s4)s3)c3c2C(=O)c2c([Cr])sc([Cr])c2C3=O)s1}.COc1c(F)c(-c2cc3c(s2)-c2sc(/C=C4\C(=O)c5cc(F)c(F)cc5C4=C(C#N)C#N)cc2C3([Cr])[Cr])c(OC)c(F)c1-c1cc2c(s1)-c1sc(/C=C3\C(=O)c4cc(F)c(F)cc4C3=C(C#N)C#N)cc1C2([Cr])[Cr]
PBDB-TF,OF-PCIC,-5.498461538461539,-3.65,-5.66,-3.86,0.833,CB,20.0,CN,110.0,9.09,918.709792,0.91,13.76,73.37,Cc1ccc(-c2sc(-c3ccc(-c4cc5c(-c6cc(F)c([Cr])s6)c6sc(C)cc6c(-c6cc(F)c([Cr])s6)c5s4)s3)c3c2C(=O)c2c([Cr])sc([Cr])c2C3=O)s1.N#CC(C#N)=C1/C(=C/c2cc3c(s2)-c2sc(-c4c(F)c(F)c(-c5cc6c(s5)-c5sc(/C=C7\C(=O)c8cc(F)c(F)cc8C7=C(C#N)C#N)cc5C6([Cr])[Cr])c(F)c4F)cc2C3([Cr])[Cr])C(=O)c2cc(F)c(F)cc21,[C][C][=C][C][=C][Branch2][#Branch1][P][C][S][C][Branch2][Branch1][P][C][=C][C][=C][Branch2][Branch1][=Branch1][C][=C][C][=C][Branch1][=C][C][=C][C][Branch1][C][F][=C][Branch1][C][Cr][S][Ring1][#Branch1][C][S][C][Branch1][C][C][=C][C][=Ring1][=Branch1][C][Branch1][=C][C][=C][C][Branch1][C][F][=C][Branch1][C][Cr][S][Ring1][#Branch1][=C][Ring2][Ring1][Branch2][S][Ring2][Ring1][O][S][Ring2][Ring1][S][=C][C][=Ring2][Ring2][Branch1][C][=Branch1][C][=O][C][=C][Branch1][C][Cr][S][C][Branch1][C][Cr][=C][Ring1][#Branch1][C][Ring1][N][=O][S][Ring2][Branch1][Branch1].[N][#C][C][Branch1][Ring1][C][#N][=C][/C][=Branch2][Branch2][=C][=C][/C][=C][C][=C][Branch1][Ring2][S][Ring1][Branch1][C][S][C][Branch2][=Branch1][P][C][=C][Branch1][C][F][C][Branch1][C][F][=C][Branch2][Branch1][O][C][=C][C][=C][Branch1][Ring2][S][Ring1][Branch1][C][S][C][Branch2][Ring1][#C][/C][=C][\C][=Branch1][C][=O][C][=C][C][Branch1][C][F][=C][Branch1][C][F][C][=C][Ring1][Branch2][C][Ring1][N][=C][Branch1][Ring1][C][#N][C][#N][=C][C][=Ring2][Ring1][#Branch1][C][Ring2][Ring1][O][Branch1][C][Cr][Cr][C][Branch1][C][F][=C][Ring2][Ring2][Branch2][F][=C][C][=Ring2][Ring2][=C][C][Ring2][Branch1][C][Branch1][C][Cr][Cr][C][=Branch1][C][=O][C][=C][C][Branch1][C][F][=C][Branch1][C][F][C][=C][Ring1][Branch2][Ring2][=Branch1][Ring1],{[$]c1ccc(-c2sc(-c3ccc(-c4cc5c(-c6cc(F)c([Cr])s6)c6sc([$])cc6c(-c6cc(F)c([Cr])s6)c5s4)s3)c3c2C(=O)c2c([Cr])sc([Cr])c2C3=O)s1}.N#CC(C#N)=C1/C(=C/c2cc3c(s2)-c2sc(-c4c(F)c(F)c(-c5cc6c(s5)-c5sc(/C=C7\C(=O)c8cc(F)c(F)cc8C7=C(C#N)C#N)cc5C6([Cr])[Cr])c(F)c4F)cc2C3([Cr])[Cr])C(=O)c2cc(F)c(F)cc21
PBDB-T,IF-TN,-5.297777777777778,-3.4170000000000003,-5.8,-3.93,1.0,CB,10.0,CN,80.0,2.89,289.193814,1.006,7.02,40.95,Cc1ccc(-c2sc(-c3ccc(-c4cc5c(-c6ccc([Cr])s6)c6sc(C)cc6c(-c6ccc([Cr])s6)c5s4)s3)c3c2C(=O)c2c([Cr])sc([Cr])c2C3=O)s1.N#CC(C#N)=C1/C(=C/c2cc([Cr])c(-c3ccc4c(c3)C([Mo])([Mo])c3cc5c(cc3-4)C([Mo])([Mo])c3cc(-c4sc(/C=C6\C(=O)c7cc8ccccc8cc7C6=C(C#N)C#N)cc4[Cr])ccc3-5)s2)C(=O)c2cc3ccccc3cc21,[C][C][=C][C][=C][Branch2][#Branch1][O][C][S][C][Branch2][Branch1][O][C][=C][C][=C][Branch2][Ring2][S][C][=C][C][=C][Branch1][O][C][=C][C][=C][Branch1][C][Cr][S][Ring1][=Branch1][C][S][C][Branch1][C][C][=C][C][=Ring1][=Branch1][C][Branch1][O][C][=C][C][=C][Branch1][C][Cr][S][Ring1][=Branch1][=C][Ring2][Ring1][=Branch1][S][Ring2][Ring1][=Branch2][S][Ring2][Ring1][=C][=C][C][=Ring2][Ring2][Ring1][C][=Branch1][C][=O][C][=C][Branch1][C][Cr][S][C][Branch1][C][Cr][=C][Ring1][#Branch1][C][Ring1][N][=O][S][Ring2][Branch1][Ring1].[N][#C][C][Branch1][Ring1][C][#N][=C][/C][=Branch2][Branch2][=N][=C][/C][=C][C][Branch1][C][Cr][=C][Branch2][#Branch1][=C][C][=C][C][=C][C][=Branch1][Ring2][=C][Ring1][=Branch1][C][Branch1][C][Mo][Branch1][C][Mo][C][=C][C][=C][Branch1][#Branch1][C][=C][Ring1][=Branch1][Ring1][N][C][Branch1][C][Mo][Branch1][C][Mo][C][=C][C][Branch2][Ring2][O][C][S][C][Branch2][Ring1][#C][/C][=C][\C][=Branch1][C][=O][C][=C][C][=C][C][=C][C][=C][Ring1][=Branch1][C][=C][Ring1][#Branch2][C][Ring1][=C][=C][Branch1][Ring1][C][#N][C][#N][=C][C][=Ring2][Ring1][=Branch2][Cr][=C][C][=C][Ring2][Ring1][S][Ring2][Ring2][#Branch1][S][Ring2][Branch1][Branch2][C][=Branch1][C][=O][C][=C][C][=C][C][=C][C][=C][Ring1][=Branch1][C][=C][Ring1][#Branch2][Ring2][=Branch1][#Branch1],{[$]c1ccc(-c2sc(-c3ccc(-c4cc5c(-c6ccc([Cr])s6)c6sc([$])cc6c(-c6ccc([Cr])s6)c5s4)s3)c3c2C(=O)c2c([Cr])sc([Cr])c2C3=O)s1}.N#CC(C#N)=C1/C(=C/c2cc([Cr])c(-c3ccc4c(c3)C([Mo])([Mo])c3cc5c(cc3-4)C([Mo])([Mo])c3cc(-c4sc(/C=C6\C(=O)c7cc8ccccc8cc7C6=C(C#N)C#N)cc4[Cr])ccc3-5)s2)C(=O)c2cc3ccccc3cc21
PBDB-T,IDT-TN,-5.297777777777778,-3.4170000000000003,-5.42,-4.03,1.0,CB,10.0,CN,80.0,5.77,577.4415358,0.967,13.22,45.17,Cc1ccc(-c2sc(-c3ccc(-c4cc5c(-c6ccc([Cr])s6)c6sc(C)cc6c(-c6ccc([Cr])s6)c5s4)s3)c3c2C(=O)c2c([Cr])sc([Cr])c2C3=O)s1.N#CC(C#N)=C1/C(=C/c2cc([Cr])c(-c3cc4c(s3)-c3cc5c(cc3C4([Mo])[Mo])-c3sc(-c4sc(/C=C6\C(=O)c7cc8ccccc8cc7C6=C(C#N)C#N)cc4[Cr])cc3C5([Mo])[Mo])s2)C(=O)c2cc3ccccc3cc21,[C][C][=C][C][=C][Branch2][#Branch1][O][C][S][C][Branch2][Branch1][O][C][=C][C][=C][Branch2][Ring2][S][C][=C][C][=C][Branch1][O][C][=C][C][=C][Branch1][C][Cr][S][Ring1][=Branch1][C][S][C][Branch1][C][C][=C][C][=Ring1][=Branch1][C][Branch1][O][C][=C][C][=C][Branch1][C][Cr][S][Ring1][=Branch1][=C][Ring2][Ring1][=Branch1][S][Ring2][Ring1][=Branch2][S][Ring2][Ring1][=C][=C][C][=Ring2][Ring2][Ring1][C][=Branch1][C][=O][C][=C][Branch1][C][Cr][S][C][Branch1][C][Cr][=C][Ring1][#Branch1][C][Ring1][N][=O][S][Ring2][Branch1][Ring1].[N][#C][C][Branch1][Ring1][C][#N][=C][/C][=Branch2][Branch2][#Branch1][=C][/C][=C][C][Branch1][C][Cr][=C][Branch2][#Branch1][Branch2][C][=C][C][=C][Branch1][Ring2][S][Ring1][Branch1][C][=C][C][=C][Branch1][N][C][=C][Ring1][=Branch1][C][Ring1][#Branch2][Branch1][C][Mo][Mo][C][S][C][Branch2][Ring2][O][C][S][C][Branch2][Ring1][#C][/C][=C][\C][=Branch1][C][=O][C][=C][C][=C][C][=C][C][=C][Ring1][=Branch1][C][=C][Ring1][#Branch2][C][Ring1][=C][=C][Branch1][Ring1][C][#N][C][#N][=C][C][=Ring2][Ring1][=Branch2][Cr][=C][C][=Ring2][Ring1][#C][C][Ring2][Ring2][#Branch1][Branch1][C][Mo][Mo][S][Ring2][Branch1][=Branch1][C][=Branch1][C][=O][C][=C][C][=C][C][=C][C][=C][Ring1][=Branch1][C][=C][Ring1][#Branch2][Ring2][=Branch1][Branch1],{[$]c1ccc(-c2sc(-c3ccc(-c4cc5c(-c6ccc([Cr])s6)c6sc([$])cc6c(-c6ccc([Cr])s6)c5s4)s3)c3c2C(=O)c2c([Cr])sc([Cr])c2C3=O)s1}.N#CC(C#N)=C1/C(=C/c2cc([Cr])c(-c3cc4c(s3)-c3cc5c(cc3C4([Mo])[Mo])-c3sc(-c4sc(/C=C6\C(=O)c7cc8ccccc8cc7C6=C(C#N)C#N)cc4[Cr])cc3C5([Mo])[Mo])s2)C(=O)c2cc3ccccc3cc21
PBDB-T,IT-M,-5.297777777777778,-3.4170000000000003,-5.513571428571429,-3.808,1.0,CB,20.0,DIO,120.0,10.31,1036.383909,0.93,16.69,66.77,Cc1ccc(-c2sc(-c3ccc(-c4cc5c(-c6ccc([Cr])s6)c6sc(C)cc6c(-c6ccc([Cr])s6)c5s4)s3)c3c2C(=O)c2c([Cr])sc([Cr])c2C3=O)s1.Cc1ccc2c(c1)C(=C(C#N)C#N)/C(=C/c1cc3sc4c(c3s1)C(c1ccc([Mo])cc1)(c1ccc([Mo])cc1)c1cc3c(cc1-4)C(c1ccc([Mo])cc1)(c1ccc([Mo])cc1)c1c-3sc3cc(/C=C4\C(=O)c5ccc(C)cc5C4=C(C#N)C#N)sc13)C2=O,[C][C][=C][C][=C][Branch2][#Branch1][O][C][S][C][Branch2][Branch1][O][C][=C][C][=C][Branch2][Ring2][S][C][=C][C][=C][Branch1][O][C][=C][C][=C][Branch1][C][Cr][S][Ring1][=Branch1][C][S][C][Branch1][C][C][=C][C][=Ring1][=Branch1][C][Branch1][O][C][=C][C][=C][Branch1][C][Cr][S][Ring1][=Branch1][=C][Ring2][Ring1][=Branch1][S][Ring2][Ring1][=Branch2][S][Ring2][Ring1][=C][=C][C][=Ring2][Ring2][Ring1][C][=Branch1][C][=O][C][=C][Branch1][C][Cr][S][C][Branch1][C][Cr][=C][Ring1][#Branch1][C][Ring1][N][=O][S][Ring2][Branch1][Ring1].[C][C][=C][C][=C][C][=Branch1][Ring2][=C][Ring1][=Branch1][C][=Branch1][Branch2][=C][Branch1][Ring1][C][#N][C][#N][/C][=Branch2][#Branch2][C][=C][/C][=C][C][S][C][=C][Branch1][#Branch1][C][=Ring1][Branch1][S][Ring1][Branch2][C][Branch1][N][C][=C][C][=C][Branch1][C][Mo][C][=C][Ring1][#Branch1][Branch1][N][C][=C][C][=C][Branch1][C][Mo][C][=C][Ring1][#Branch1][C][=C][C][=C][Branch1][Branch2][C][=C][Ring1][=Branch1][Ring2][Ring1][=Branch2][C][Branch1][N][C][=C][C][=C][Branch1][C][Mo][C][=C][Ring1][#Branch1][Branch1][N][C][=C][C][=C][Branch1][C][Mo][C][=C][Ring1][#Branch1][C][=C][Ring2][Ring1][Branch1][S][C][C][=C][Branch2][Ring1][N][/C][=C][\C][=Branch1][C][=O][C][=C][C][=C][Branch1][C][C][C][=C][Ring1][#Branch1][C][Ring1][O][=C][Branch1][Ring1][C][#N][C][#N][S][C][Ring2][Ring1][=Branch2][=Ring2][Ring1][=Branch1][C][Ring2][=Branch1][P][=O],{[$]c1ccc(-c2sc(-c3ccc(-c4cc5c(-c6ccc([Cr])s6)c6sc([$])cc6c(-c6ccc([Cr])s6)c5s4)s3)c3c2C(=O)c2c([Cr])sc([Cr])c2C3=O)s1}.Cc1ccc2c(c1)C(=C(C#N)C#N)/C(=C/c1cc3sc4c(c3s1)C(c1ccc([Mo])cc1)(c1ccc([Mo])cc1)c1cc3c(cc1-4)C(c1ccc([Mo])cc1)(c1ccc([Mo])cc1)c1c-3sc3cc(/C=C4\C(=O)c5ccc(C)cc5C4=C(C#N)C#N)sc13)C2=O
PBDB-T,ITIC-Cl4,-5.297777777777778,-3.4170000000000003,-5.666666666666667,-4.026666666666666,1.0,o-DCB,15.0,CN,25.0,9.6,954.6,0.74,21.5,60.0,Cc1ccc(-c2sc(-c3ccc(-c4cc5c(-c6ccc([Cr])s6)c6sc(C)cc6c(-c6ccc([Cr])s6)c5s4)s3)c3c2C(=O)c2c([Cr])sc([Cr])c2C3=O)s1.CCCCCCc1ccc(C2(c3ccc(CCCCCC)cc3)c3cc4c(cc3-c3sc5cc(/C=C6\C(=O)c7cc(Cl)c(Cl)cc7C6=C(C#N)C#N)sc5c32)C(c2ccc(CCCCCC)cc2)(c2ccc(CCCCCC)cc2)c2c-4sc3cc(/C=C4\C(=O)c5cc(Cl)c(Cl)cc5C4=C(C#N)C#N)sc23)cc1,[C][C][=C][C][=C][Branch2][#Branch1][O][C][S][C][Branch2][Branch1][O][C][=C][C][=C][Branch2][Ring2][S][C][=C][C][=C][Branch1][O][C][=C][C][=C][Branch1][C][Cr][S][Ring1][=Branch1][C][S][C][Branch1][C][C][=C][C][=Ring1][=Branch1][C][Branch1][O][C][=C][C][=C][Branch1][C][Cr][S][Ring1][=Branch1][=C][Ring2][Ring1][=Branch1][S][Ring2][Ring1][=Branch2][S][Ring2][Ring1][=C][=C][C][=Ring2][Ring2][Ring1][C][=Branch1][C][=O][C][=C][Branch1][C][Cr][S][C][Branch1][C][Cr][=C][Ring1][#Branch1][C][Ring1][N][=O][S][Ring2][Branch1][Ring1].[C][C][C][C][C][C][C][=C][C][=C][Branch2][N][Branch2][C][Branch1][P][C][=C][C][=C][Branch1][#Branch1][C][C][C][C][C][C][C][=C][Ring1][N][C][=C][C][=C][Branch2][Branch1][#Branch1][C][=C][Ring1][=Branch1][C][S][C][C][=C][Branch2][Ring1][#C][/C][=C][\C][=Branch1][C][=O][C][=C][C][Branch1][C][Cl][=C][Branch1][C][Cl][C][=C][Ring1][Branch2][C][Ring1][N][=C][Branch1][Ring1][C][#N][C][#N][S][C][=Ring2][Ring1][#Branch1][C][=Ring2][Ring1][#Branch2][Ring2][Ring2][=N][C][Branch1][P][C][=C][C][=C][Branch1][#Branch1][C][C][C][C][C][C][C][=C][Ring1][N][Branch1][P][C][=C][C][=C][Branch1][#Branch1][C][C][C][C][C][C][C][=C][Ring1][N][C][=C][Ring2][Branch1][=Branch2][S][C][C][=C][Branch2][Ring1][#C][/C][=C][\C][=Branch1][C][=O][C][=C][C][Branch1][C][Cl][=C][Branch1][C][Cl][C][=C][Ring1][Branch2][C][Ring1][N][=C][Branch1][Ring1][C][#N][C][#N][S][C][Ring2][Ring1][#Branch2][=Ring2][Ring1][#Branch1][C][=C][Ring2][Branch2][=Branch1],{[$]c1ccc(-c2sc(-c3ccc(-c4cc5c(-c6ccc([Cr])s6)c6sc([$])cc6c(-c6ccc([Cr])s6)c5s4)s3)c3c2C(=O)c2c([Cr])sc([Cr])c2C3=O)s1}.CCCCCCc1ccc(C2(c3ccc(CCCCCC)cc3)c3cc4c(cc3-c3sc5cc(/C=C6\C(=O)c7cc(Cl)c(Cl)cc7C6=C(C#N)C#N)sc5c32)C(c2ccc(CCCCCC)cc2)(c2ccc(CCCCCC)cc2)c2c-4sc3cc(/C=C4\C(=O)c5cc(Cl)c(Cl)cc5C4=C(C#N)C#N)sc23)cc1
PBDTS-TzBI,ITIC,-5.39,-3.52,-5.574285714285715,-3.9143137254901954,1.0,CB,20.0,_,130.0,9.04,887.5104,0.94,16.8,56.2,CCCCCCCCCN1C(=O)c2c(c(-c3ccc(-c4cc5c(-c6ccc(SCC(CC)CCCC)s6)c6sc(C)cc6c(-c6ccc(SCC(CC)CCCC)s6)c5s4)s3)c3nn(CCCCCCCC)nc3c2-c2ccc(C)s2)C1=O.N#CC(C#N)=C1/C(=C/c2cc3sc4c(c3s2)C(c2ccc([Mo])cc2)(c2ccc([Mo])cc2)c2cc3c(cc2-4)C(c2ccc([Mo])cc2)(c2ccc([Mo])cc2)c2c-3sc3cc(/C=C4\C(=O)c5ccccc5C4=C(C#N)C#N)sc23)C(=O)c2ccccc21,[C][C][C][C][C][C][C][C][C][N][C][=Branch1][C][=O][C][C][=Branch2][=Branch2][Ring2][=C][Branch2][=Branch1][P][C][=C][C][=C][Branch2][=Branch1][=Branch1][C][=C][C][=C][Branch2][Ring1][Branch1][C][=C][C][=C][Branch1][N][S][C][C][Branch1][Ring1][C][C][C][C][C][C][S][Ring1][=C][C][S][C][Branch1][C][C][=C][C][=Ring1][=Branch1][C][Branch2][Ring1][Branch1][C][=C][C][=C][Branch1][N][S][C][C][Branch1][Ring1][C][C][C][C][C][C][S][Ring1][=C][=C][Ring2][Ring2][=Branch1][S][Ring2][Ring2][=Branch2][S][Ring2][Ring2][=C][C][=N][N][Branch1][=Branch2][C][C][C][C][C][C][C][C][N][=C][Ring1][=N][C][=Ring2][Branch1][#C][C][=C][C][=C][Branch1][C][C][S][Ring1][=Branch1][C][Ring2][=Branch1][=Branch2][=O].[N][#C][C][Branch1][Ring1][C][#N][=C][/C][=Branch2][=Branch2][#C][=C][/C][=C][C][S][C][=C][Branch1][#Branch1][C][=Ring1][Branch1][S][Ring1][Branch2][C][Branch1][N][C][=C][C][=C][Branch1][C][Mo][C][=C][Ring1][#Branch1][Branch1][N][C][=C][C][=C][Branch1][C][Mo][C][=C][Ring1][#Branch1][C][=C][C][=C][Branch1][Branch2][C][=C][Ring1][=Branch1][Ring2][Ring1][=Branch2][C][Branch1][N][C][=C][C][=C][Branch1][C][Mo][C][=C][Ring1][#Branch1][Branch1][N][C][=C][C][=C][Branch1][C][Mo][C][=C][Ring1][#Branch1][C][=C][Ring2][Ring1][Branch1][S][C][C][=C][Branch2][Ring1][=Branch2][/C][=C][\C][=Branch1][C][=O][C][=C][C][=C][C][=C][Ring1][=Branch1][C][Ring1][#Branch2][=C][Branch1][Ring1][C][#N][C][#N][S][C][Ring2][Ring1][Branch2][=Ring2][Ring1][Branch1][C][=Branch1][C][=O][C][=C][C][=C][C][=C][Ring1][=Branch1][Ring2][=Branch1][#C],{CCCCCCCCCN1C(=O)c2c(c(-c3ccc(-c4cc5c(-c6ccc(SCC(CC)CCCC)s6)c6sc([$])cc6c(-c6ccc(SCC(CC)CCCC)s6)c5s4)s3)c3nn(CCCCCCCC)nc3c2-c2ccc([$])s2)C1=O}.N#CC(C#N)=C1/C(=C/c2cc3sc4c(c3s2)C(c2ccc([Mo])cc2)(c2ccc([Mo])cc2)c2cc3c(cc2-4)C(c2ccc([Mo])cc2)(c2ccc([Mo])cc2)c2c-3sc3cc(/C=C4\C(=O)c5ccccc5C4=C(C#N)C#N)sc23)C(=O)c2ccccc21