Donor,Acceptor,HOMO_D_eV,LUMO_D_eV,HOMO_A_eV,LUMO_A_eV,D_A_ratio_m_m,solvent,total_solids_conc_mg_mL,solvent_additive,annealing_temperature,PCE_percent,calc_PCE_percent,Voc_V,Jsc_mA_cm_pow_neg2,FF_percent,DA_SMILES,DA_SELFIES,DA_BigSMILES
PTB7-Th,Py-2,-5.21,-3.542368421052632,-5.83,-3.78,1.0,CF,10.0,_,25.0,3.47,340.8675,0.75,9.67,47.0,Cc1cc2c(-c3ccc([Cr])s3)c3sc(-c4sc(C)c5c(F)c(C(=O)O[Cr])sc45)cc3c(-c3ccc([Cr])s3)c2s1.N#CC(C#N)=C1/C(=C/c2cc3c(s2)-c2cc4ccc5cc6c(c7ccc(c2C3(c2ccc([Mo])cc2)c2ccc([Mo])cc2)c4c57)C(c2ccc([Mo])cc2)(c2ccc([Mo])cc2)c2cc(/C=C3\C(=O)c4cc(F)c(F)cc4C3=C(C#N)C#N)sc2-6)C(=O)c2cc(F)c(F)cc21,[C][C][=C][C][=C][Branch1][O][C][=C][C][=C][Branch1][C][Cr][S][Ring1][=Branch1][C][S][C][Branch2][Ring1][O][C][S][C][Branch1][C][C][=C][C][Branch1][C][F][=C][Branch1][#Branch1][C][=Branch1][C][=O][O][Cr][S][C][=Ring1][=C][Ring1][#Branch2][=C][C][=Ring2][Ring1][Ring1][C][Branch1][O][C][=C][C][=C][Branch1][C][Cr][S][Ring1][=Branch1][=C][Ring2][Ring2][Ring1][S][Ring2][Ring2][=Branch1].[N][#C][C][Branch1][Ring1][C][#N][=C][/C][=Branch2][#Branch2][#C][=C][/C][=C][C][=C][Branch1][Ring2][S][Ring1][Branch1][C][=C][C][=C][C][=C][C][=C][C][=Branch2][Branch1][C][=C][C][=C][C][=Branch2][Ring1][S][=C][Ring1][=C][C][Ring2][Ring1][C][Branch1][N][C][=C][C][=C][Branch1][C][Mo][C][=C][Ring1][#Branch1][C][=C][C][=C][Branch1][C][Mo][C][=C][Ring1][#Branch1][C][Ring2][Ring1][N][=C][Ring2][Ring1][#Branch2][Ring2][Ring1][=Branch1][C][Branch1][N][C][=C][C][=C][Branch1][C][Mo][C][=C][Ring1][#Branch1][Branch1][N][C][=C][C][=C][Branch1][C][Mo][C][=C][Ring1][#Branch1][C][C][=C][Branch2][Ring1][#C][/C][=C][\C][=Branch1][C][=O][C][=C][C][Branch1][C][F][=C][Branch1][C][F][C][=C][Ring1][Branch2][C][Ring1][N][=C][Branch1][Ring1][C][#N][C][#N][S][C][=Ring2][Ring1][#Branch1][Ring2][Branch1][=C][C][=Branch1][C][=O][C][=C][C][Branch1][C][F][=C][Branch1][C][F][C][=C][Ring1][Branch2][Ring2][#Branch1][#Branch1],{[$]c1cc2c(-c3ccc([Cr])s3)c3sc(-c4sc([$])c5c(F)c(C(=O)O[Cr])sc45)cc3c(-c3ccc([Cr])s3)c2s1}.N#CC(C#N)=C1/C(=C/c2cc3c(s2)-c2cc4ccc5cc6c(c7ccc(c2C3(c2ccc([Mo])cc2)c2ccc([Mo])cc2)c4c57)C(c2ccc([Mo])cc2)(c2ccc([Mo])cc2)c2cc(/C=C3\C(=O)c4cc(F)c(F)cc4C3=C(C#N)C#N)sc2-6)C(=O)c2cc(F)c(F)cc21
PBB-T,ITIC-F,-5.4,-3.3,-5.619999999999998,-4.018571428571428,0.833,CB,15.4,_,150.0,13.3,1331.33,0.91,20.9,70.0,Cc1cc2c(-c3ccc([Cr])s3)c3sc(-c4sc(-c5nc6cc7sc(-c8cc([Co])c(C)s8)nc7cc6s5)cc4[Co])cc3c(-c3ccc([Cr])s3)c2s1.CCCCCCc1ccc(C2(c3ccc(CCCCCC)cc3)c3cc4c(cc3-c3sc5cc(/C=C6\C(=O)c7cc(F)c(F)cc7C6=C(C#N)C#N)sc5c32)C(c2ccc(CCCCCC)cc2)(c2ccc(CCCCCC)cc2)c2c-4sc3cc(/C=C4\C(=O)c5cc(F)c(F)cc5C4=C(C#N)C#N)sc23)cc1,[C][C][=C][C][=C][Branch1][O][C][=C][C][=C][Branch1][C][Cr][S][Ring1][=Branch1][C][S][C][Branch2][Ring2][#C][C][S][C][Branch2][Ring2][Ring1][C][=N][C][=C][C][S][C][Branch1][=C][C][=C][C][Branch1][C][Co][=C][Branch1][C][C][S][Ring1][#Branch1][=N][C][=Ring1][N][C][=C][Ring1][S][S][Ring2][Ring1][Ring1][=C][C][=Ring2][Ring1][Branch2][Co][=C][C][=Ring2][Ring1][=C][C][Branch1][O][C][=C][C][=C][Branch1][C][Cr][S][Ring1][=Branch1][=C][Ring2][Ring2][=C][S][Ring2][Ring2][P].[C][C][C][C][C][C][C][=C][C][=C][Branch2][N][Branch2][C][Branch1][P][C][=C][C][=C][Branch1][#Branch1][C][C][C][C][C][C][C][=C][Ring1][N][C][=C][C][=C][Branch2][Branch1][#Branch1][C][=C][Ring1][=Branch1][C][S][C][C][=C][Branch2][Ring1][#C][/C][=C][\C][=Branch1][C][=O][C][=C][C][Branch1][C][F][=C][Branch1][C][F][C][=C][Ring1][Branch2][C][Ring1][N][=C][Branch1][Ring1][C][#N][C][#N][S][C][=Ring2][Ring1][#Branch1][C][=Ring2][Ring1][#Branch2][Ring2][Ring2][=N][C][Branch1][P][C][=C][C][=C][Branch1][#Branch1][C][C][C][C][C][C][C][=C][Ring1][N][Branch1][P][C][=C][C][=C][Branch1][#Branch1][C][C][C][C][C][C][C][=C][Ring1][N][C][=C][Ring2][Branch1][=Branch2][S][C][C][=C][Branch2][Ring1][#C][/C][=C][\C][=Branch1][C][=O][C][=C][C][Branch1][C][F][=C][Branch1][C][F][C][=C][Ring1][Branch2][C][Ring1][N][=C][Branch1][Ring1][C][#N][C][#N][S][C][Ring2][Ring1][#Branch2][=Ring2][Ring1][#Branch1][C][=C][Ring2][Branch2][=Branch1],{[$]c1cc2c(-c3ccc([Cr])s3)c3sc(-c4sc(-c5nc6cc7sc(-c8cc([Co])c([$])s8)nc7cc6s5)cc4[Co])cc3c(-c3ccc([Cr])s3)c2s1}.CCCCCCc1ccc(C2(c3ccc(CCCCCC)cc3)c3cc4c(cc3-c3sc5cc(/C=C6\C(=O)c7cc(F)c(F)cc7C6=C(C#N)C#N)sc5c32)C(c2ccc(CCCCCC)cc2)(c2ccc(CCCCCC)cc2)c2c-4sc3cc(/C=C4\C(=O)c5cc(F)c(F)cc5C4=C(C#N)C#N)sc23)cc1
PFBDB-T,C8-ITIC,-5.47,-3.46,-5.63,-3.91,0.769,CB,20.0,_,25.0,12.5,1257.0903,0.93,19.59,69.0,CCCCCCC(CC)c1ccc(-c2c3cc(-c4sc(-c5sc(-c6cc(F)c(C)s6)c6c5C(=O)c5c(C(CC)CCCCCC)sc(C(CC)CCCCCC)c5C6=O)cc4F)sc3c(-c3ccc(C(CC)CCCCCC)s3)c3cc(C)sc23)s1.N#CC(C#N)=C1/C(=C/c2cc3c(s2)-c2sc4cc5c6c(sc5cc4c2C3(c2ccc([Mo])cc2)c2ccc([Mo])cc2)-c2sc(/C=C3\C(=O)c4ccccc4C3=C(C#N)C#N)cc2C6(c2ccc([Mo])cc2)c2ccc([Mo])cc2)C(=O)c2ccccc21,[C][C][C][C][C][C][C][Branch1][Ring1][C][C][C][=C][C][=C][Branch2][=Branch2][#C][C][=C][C][=C][Branch2][=Branch1][=C][C][S][C][Branch2][=Branch1][C][C][S][C][Branch1][=C][C][=C][C][Branch1][C][F][=C][Branch1][C][C][S][Ring1][#Branch1][=C][C][=Ring1][N][C][=Branch1][C][=O][C][=C][Branch1][N][C][Branch1][Ring1][C][C][C][C][C][C][C][C][S][C][Branch1][N][C][Branch1][Ring1][C][C][C][C][C][C][C][C][=C][Ring2][Ring1][#Branch1][C][Ring2][Ring1][N][=O][=C][C][=Ring2][Ring2][N][F][S][C][Ring2][Branch1][C][=C][Branch2][Ring1][Branch1][C][=C][C][=C][Branch1][N][C][Branch1][Ring1][C][C][C][C][C][C][C][C][S][Ring1][=C][C][C][=C][Branch1][C][C][S][C][Ring2][=Branch1][Branch2][=Ring1][=Branch1][S][Ring2][=Branch1][=N].[N][#C][C][Branch1][Ring1][C][#N][=C][/C][=Branch2][=Branch2][#Branch2][=C][/C][=C][C][=C][Branch1][Ring2][S][Ring1][Branch1][C][S][C][=C][C][C][=C][Branch2][Ring2][#Branch1][S][C][=Ring1][Branch1][C][=C][Ring1][=Branch2][C][=Ring1][N][C][Ring1][S][Branch1][N][C][=C][C][=C][Branch1][C][Mo][C][=C][Ring1][#Branch1][C][=C][C][=C][Branch1][C][Mo][C][=C][Ring1][#Branch1][C][S][C][Branch2][Ring1][=Branch2][/C][=C][\C][=Branch1][C][=O][C][=C][C][=C][C][=C][Ring1][=Branch1][C][Ring1][#Branch2][=C][Branch1][Ring1][C][#N][C][#N][=C][C][=Ring2][Ring1][Branch1][C][Ring2][Ring2][N][Branch1][N][C][=C][C][=C][Branch1][C][Mo][C][=C][Ring1][#Branch1][C][=C][C][=C][Branch1][C][Mo][C][=C][Ring1][#Branch1][C][=Branch1][C][=O][C][=C][C][=C][C][=C][Ring1][=Branch1][Ring2][=Branch1][#C],{CCCCCCC(CC)c1ccc(-c2c3cc(-c4sc(-c5sc(-c6cc(F)c([$])s6)c6c5C(=O)c5c(C(CC)CCCCCC)sc(C(CC)CCCCCC)c5C6=O)cc4F)sc3c(-c3ccc(C(CC)CCCCCC)s3)c3cc([$])sc23)s1}.N#CC(C#N)=C1/C(=C/c2cc3c(s2)-c2sc4cc5c6c(sc5cc4c2C3(c2ccc([Mo])cc2)c2ccc([Mo])cc2)-c2sc(/C=C3\C(=O)c4ccccc4C3=C(C#N)C#N)cc2C6(c2ccc([Mo])cc2)c2ccc([Mo])cc2)C(=O)c2ccccc21
P_TBTT-BTT,ICz-Rd2,-5.15,-3.58,-5.59,-3.88,1.0,CF,15.0,_,40.0,7.88,788.4864,1.04,14.04,54.0,CCCCCCCCc1ccc(-c2sc(-c3ccc(CCCCCCCC)s3)c3c4cc(-c5ccc(-c6ccc(-c7ccc(C)s7)c7nsnc67)s5)sc4c4sc(C)cc4c23)s1.CCN1C(=O)/C(=C/c2ccc(-c3ccc4c5cc6c(cc5n([Cr])c4c3)c3ccc(-c4ccc(/C=C5\SC(=S)N(CC)C5=O)c5nsnc45)cc3n6[Cr])c3nsnc23)SC1=S,[C][C][C][C][C][C][C][C][C][=C][C][=C][Branch2][#Branch1][=Branch2][C][S][C][Branch2][Ring1][C][C][=C][C][=C][Branch1][=Branch2][C][C][C][C][C][C][C][C][S][Ring1][=N][=C][C][C][=C][Branch2][Ring2][Branch1][C][=C][C][=C][Branch2][Ring1][#Branch2][C][=C][C][=C][Branch1][O][C][=C][C][=C][Branch1][C][C][S][Ring1][=Branch1][C][=N][S][N][=C][Ring1][#C][Ring1][Branch1][S][Ring2][Ring1][Ring2][S][C][=Ring2][Ring1][=Branch2][C][S][C][Branch1][C][C][=C][C][=Ring1][=Branch1][C][=Ring2][Ring2][P][Ring2][Ring1][P][S][Ring2][Branch1][=Branch1].[C][C][N][C][=Branch1][C][=O][/C][=Branch2][#Branch1][N][=C][/C][=C][C][=C][Branch2][=Branch1][#Branch2][C][=C][C][=C][C][=C][C][=C][Branch1][#C][C][=C][Ring1][=Branch1][N][Branch1][C][Cr][C][Ring1][#Branch2][=C][Ring1][=C][C][=C][C][=C][Branch2][Ring1][P][C][=C][C][=C][Branch1][P][/C][=C][\S][C][=Branch1][C][=S][N][Branch1][Ring1][C][C][C][Ring1][Branch2][=O][C][=N][S][N][=C][Ring2][Ring1][Ring1][Ring1][Branch1][C][=C][Ring2][Ring1][=Branch2][N][Ring2][Ring2][C][Cr][C][=N][S][N][=C][Ring2][Branch1][C][Ring1][Branch1][S][C][Ring2][Branch1][=Branch2][=S],{CCCCCCCCc1ccc(-c2sc(-c3ccc(CCCCCCCC)s3)c3c4cc(-c5ccc(-c6ccc(-c7ccc([$])s7)c7nsnc67)s5)sc4c4sc([$])cc4c23)s1}.CCN1C(=O)/C(=C/c2ccc(-c3ccc4c5cc6c(cc5n([Cr])c4c3)c3ccc(-c4ccc(/C=C5\SC(=S)N(CC)C5=O)c5nsnc45)cc3n6[Cr])c3nsnc23)SC1=S
P_TBTT-BTT,ICz-RdCN2,-5.15,-3.58,-5.58,-3.98,1.0,CF,15.0,_,40.0,9.76,975.6196,1.01,15.58,62.0,CCCCCCCCc1ccc(-c2sc(-c3ccc(CCCCCCCC)s3)c3c4cc(-c5ccc(-c6ccc(-c7ccc(C)s7)c7nsnc67)s5)sc4c4sc(C)cc4c23)s1.CCn1c(=C(C#N)C#N)s/c(=C\c2ccc(-c3ccc4c5cc6c(cc5n([Cr])c4c3)c3ccc(-c4ccc(/C=c5\sc(=C(C#N)C#N)n(CC)c5=O)c5nsnc45)cc3n6[Cr])c3nsnc23)c1=O,[C][C][C][C][C][C][C][C][C][=C][C][=C][Branch2][#Branch1][=Branch2][C][S][C][Branch2][Ring1][C][C][=C][C][=C][Branch1][=Branch2][C][C][C][C][C][C][C][C][S][Ring1][=N][=C][C][C][=C][Branch2][Ring2][Branch1][C][=C][C][=C][Branch2][Ring1][#Branch2][C][=C][C][=C][Branch1][O][C][=C][C][=C][Branch1][C][C][S][Ring1][=Branch1][C][=N][S][N][=C][Ring1][#C][Ring1][Branch1][S][Ring2][Ring1][Ring2][S][C][=Ring2][Ring1][=Branch2][C][S][C][Branch1][C][C][=C][C][=Ring1][=Branch1][C][=Ring2][Ring2][P][Ring2][Ring1][P][S][Ring2][Branch1][=Branch1].[C][C][N][C][=Branch1][Branch2][=C][Branch1][Ring1][C][#N][C][#N][S][/C][=Branch2][Branch2][Ring1][=C][\C][=C][C][=C][Branch2][=Branch1][P][C][=C][C][=C][C][=C][C][=C][Branch1][#C][C][=C][Ring1][=Branch1][N][Branch1][C][Cr][C][Ring1][#Branch2][=C][Ring1][=C][C][=C][C][=C][Branch2][Ring2][Branch2][C][=C][C][=C][Branch2][Ring1][#Branch1][/C][=C][\S][C][=Branch1][Branch2][=C][Branch1][Ring1][C][#N][C][#N][N][Branch1][Ring1][C][C][C][Ring1][N][=O][C][=N][S][N][=C][Ring2][Ring1][#Branch1][Ring1][Branch1][C][=C][Ring2][Ring1][=N][N][Ring2][Ring2][=Branch1][Cr][C][=N][S][N][=C][Ring2][Branch1][=Branch1][Ring1][Branch1][C][Ring2][Branch1][P][=O],{CCCCCCCCc1ccc(-c2sc(-c3ccc(CCCCCCCC)s3)c3c4cc(-c5ccc(-c6ccc(-c7ccc([$])s7)c7nsnc67)s5)sc4c4sc([$])cc4c23)s1}.CCn1c(=C(C#N)C#N)s/c(=C\c2ccc(-c3ccc4c5cc6c(cc5n([Cr])c4c3)c3ccc(-c4ccc(/C=c5\sc(=C(C#N)C#N)n(CC)c5=O)c5nsnc45)cc3n6[Cr])c3nsnc23)c1=O
PBZ,IT-4F,-5.218181818181818,-3.282,-5.670384615384615,-4.058076923076923,1.0,Toluene,20.0,PN,25.0,6.4,644.64,0.6,17.0,63.2,Cc1ccc(-c2c(F)c(F)c(-c3ccc(-c4cc5c(-c6ccc([Cr])s6)c6sc(C)cc6c(-c6ccc([Cr])s6)c5s4)s3)c3nn([Sc])nc23)s1.N#CC(C#N)=C1/C(=C/c2cc3sc4c(c3s2)C(c2ccc([Mo])cc2)(c2ccc([Mo])cc2)c2cc3c(cc2-4)C(c2ccc([Mo])cc2)(c2ccc([Mo])cc2)c2c-3sc3cc(/C=C4\C(=O)c5cc(F)c(F)cc5C4=C(C#N)C#N)sc23)C(=O)c2cc(F)c(F)cc21,[C][C][=C][C][=C][Branch2][#Branch1][Branch1][C][=C][Branch1][C][F][C][Branch1][C][F][=C][Branch2][Branch1][O][C][=C][C][=C][Branch2][Ring2][S][C][=C][C][=C][Branch1][O][C][=C][C][=C][Branch1][C][Cr][S][Ring1][=Branch1][C][S][C][Branch1][C][C][=C][C][=Ring1][=Branch1][C][Branch1][O][C][=C][C][=C][Branch1][C][Cr][S][Ring1][=Branch1][=C][Ring2][Ring1][=Branch1][S][Ring2][Ring1][=Branch2][S][Ring2][Ring1][=C][C][=N][N][Branch1][C][Sc][N][=C][Ring2][Ring2][#Branch2][Ring1][=Branch1][S][Ring2][Ring2][#C].[N][#C][C][Branch1][Ring1][C][#N][=C][/C][=Branch2][#Branch2][Branch1][=C][/C][=C][C][S][C][=C][Branch1][#Branch1][C][=Ring1][Branch1][S][Ring1][Branch2][C][Branch1][N][C][=C][C][=C][Branch1][C][Mo][C][=C][Ring1][#Branch1][Branch1][N][C][=C][C][=C][Branch1][C][Mo][C][=C][Ring1][#Branch1][C][=C][C][=C][Branch1][Branch2][C][=C][Ring1][=Branch1][Ring2][Ring1][=Branch2][C][Branch1][N][C][=C][C][=C][Branch1][C][Mo][C][=C][Ring1][#Branch1][Branch1][N][C][=C][C][=C][Branch1][C][Mo][C][=C][Ring1][#Branch1][C][=C][Ring2][Ring1][Branch1][S][C][C][=C][Branch2][Ring1][#C][/C][=C][\C][=Branch1][C][=O][C][=C][C][Branch1][C][F][=C][Branch1][C][F][C][=C][Ring1][Branch2][C][Ring1][N][=C][Branch1][Ring1][C][#N][C][#N][S][C][Ring2][Ring1][#Branch2][=Ring2][Ring1][#Branch1][C][=Branch1][C][=O][C][=C][C][Branch1][C][F][=C][Branch1][C][F][C][=C][Ring1][Branch2][Ring2][#Branch1][Ring1],{[$]c1ccc(-c2c(F)c(F)c(-c3ccc(-c4cc5c(-c6ccc([Cr])s6)c6sc([$])cc6c(-c6ccc([Cr])s6)c5s4)s3)c3nn([Sc])nc23)s1}.N#CC(C#N)=C1/C(=C/c2cc3sc4c(c3s2)C(c2ccc([Mo])cc2)(c2ccc([Mo])cc2)c2cc3c(cc2-4)C(c2ccc([Mo])cc2)(c2ccc([Mo])cc2)c2c-3sc3cc(/C=C4\C(=O)c5cc(F)c(F)cc5C4=C(C#N)C#N)sc23)C(=O)c2cc(F)c(F)cc21
PBZ-Cl,IT-4F,-5.46,-4.395,-5.670384615384615,-4.058076923076923,1.0,Toluene,20.0,PN,25.0,9.7,967.128,0.8,17.7,68.3,Cc1ccc(-c2c(F)c(F)c(-c3ccc(-c4cc5c(-c6cc(Cl)c([Cr])s6)c6sc(C)cc6c(-c6cc(Cl)c([Cr])s6)c5s4)s3)c3nn([Sc])nc23)s1.N#CC(C#N)=C1/C(=C/c2cc3sc4c(c3s2)C(c2ccc([Mo])cc2)(c2ccc([Mo])cc2)c2cc3c(cc2-4)C(c2ccc([Mo])cc2)(c2ccc([Mo])cc2)c2c-3sc3cc(/C=C4\C(=O)c5cc(F)c(F)cc5C4=C(C#N)C#N)sc23)C(=O)c2cc(F)c(F)cc21,[C][C][=C][C][=C][Branch2][#Branch1][O][C][=C][Branch1][C][F][C][Branch1][C][F][=C][Branch2][Branch1][P][C][=C][C][=C][Branch2][Branch1][=Branch1][C][=C][C][=C][Branch1][=C][C][=C][C][Branch1][C][Cl][=C][Branch1][C][Cr][S][Ring1][#Branch1][C][S][C][Branch1][C][C][=C][C][=Ring1][=Branch1][C][Branch1][=C][C][=C][C][Branch1][C][Cl][=C][Branch1][C][Cr][S][Ring1][#Branch1][=C][Ring2][Ring1][Branch2][S][Ring2][Ring1][O][S][Ring2][Ring1][S][C][=N][N][Branch1][C][Sc][N][=C][Ring2][Ring2][N][Ring1][=Branch1][S][Ring2][Ring2][P].[N][#C][C][Branch1][Ring1][C][#N][=C][/C][=Branch2][#Branch2][Branch1][=C][/C][=C][C][S][C][=C][Branch1][#Branch1][C][=Ring1][Branch1][S][Ring1][Branch2][C][Branch1][N][C][=C][C][=C][Branch1][C][Mo][C][=C][Ring1][#Branch1][Branch1][N][C][=C][C][=C][Branch1][C][Mo][C][=C][Ring1][#Branch1][C][=C][C][=C][Branch1][Branch2][C][=C][Ring1][=Branch1][Ring2][Ring1][=Branch2][C][Branch1][N][C][=C][C][=C][Branch1][C][Mo][C][=C][Ring1][#Branch1][Branch1][N][C][=C][C][=C][Branch1][C][Mo][C][=C][Ring1][#Branch1][C][=C][Ring2][Ring1][Branch1][S][C][C][=C][Branch2][Ring1][#C][/C][=C][\C][=Branch1][C][=O][C][=C][C][Branch1][C][F][=C][Branch1][C][F][C][=C][Ring1][Branch2][C][Ring1][N][=C][Branch1][Ring1][C][#N][C][#N][S][C][Ring2][Ring1][#Branch2][=Ring2][Ring1][#Branch1][C][=Branch1][C][=O][C][=C][C][Branch1][C][F][=C][Branch1][C][F][C][=C][Ring1][Branch2][Ring2][#Branch1][Ring1],{[$]c1ccc(-c2c(F)c(F)c(-c3ccc(-c4cc5c(-c6cc(Cl)c([Cr])s6)c6sc([$])cc6c(-c6cc(Cl)c([Cr])s6)c5s4)s3)c3nn([Sc])nc23)s1}.N#CC(C#N)=C1/C(=C/c2cc3sc4c(c3s2)C(c2ccc([Mo])cc2)(c2ccc([Mo])cc2)c2cc3c(cc2-4)C(c2ccc([Mo])cc2)(c2ccc([Mo])cc2)c2c-3sc3cc(/C=C4\C(=O)c5cc(F)c(F)cc5C4=C(C#N)C#N)sc23)C(=O)c2cc(F)c(F)cc21
PBZ-ClSi,IT-4F,-5.56,-3.5,-5.670384615384615,-4.058076923076923,1.0,Toluene,20.0,PN,25.0,12.8,1276.704,0.93,19.2,71.5,Cc1ccc(-c2c(F)c(F)c(-c3ccc(-c4cc5c(-c6cc(Cl)c([V])s6)c6sc(C)cc6c(-c6cc(Cl)c([V])s6)c5s4)s3)c3nn([Sc])nc23)s1.N#CC(C#N)=C1/C(=C/c2cc3sc4c(c3s2)C(c2ccc([Mo])cc2)(c2ccc([Mo])cc2)c2cc3c(cc2-4)C(c2ccc([Mo])cc2)(c2ccc([Mo])cc2)c2c-3sc3cc(/C=C4\C(=O)c5cc(F)c(F)cc5C4=C(C#N)C#N)sc23)C(=O)c2cc(F)c(F)cc21,[C][C][=C][C][=C][Branch2][#Branch1][O][C][=C][Branch1][C][F][C][Branch1][C][F][=C][Branch2][Branch1][P][C][=C][C][=C][Branch2][Branch1][=Branch1][C][=C][C][=C][Branch1][=C][C][=C][C][Branch1][C][Cl][=C][Branch1][C][V][S][Ring1][#Branch1][C][S][C][Branch1][C][C][=C][C][=Ring1][=Branch1][C][Branch1][=C][C][=C][C][Branch1][C][Cl][=C][Branch1][C][V][S][Ring1][#Branch1][=C][Ring2][Ring1][Branch2][S][Ring2][Ring1][O][S][Ring2][Ring1][S][C][=N][N][Branch1][C][Sc][N][=C][Ring2][Ring2][N][Ring1][=Branch1][S][Ring2][Ring2][P].[N][#C][C][Branch1][Ring1][C][#N][=C][/C][=Branch2][#Branch2][Branch1][=C][/C][=C][C][S][C][=C][Branch1][#Branch1][C][=Ring1][Branch1][S][Ring1][Branch2][C][Branch1][N][C][=C][C][=C][Branch1][C][Mo][C][=C][Ring1][#Branch1][Branch1][N][C][=C][C][=C][Branch1][C][Mo][C][=C][Ring1][#Branch1][C][=C][C][=C][Branch1][Branch2][C][=C][Ring1][=Branch1][Ring2][Ring1][=Branch2][C][Branch1][N][C][=C][C][=C][Branch1][C][Mo][C][=C][Ring1][#Branch1][Branch1][N][C][=C][C][=C][Branch1][C][Mo][C][=C][Ring1][#Branch1][C][=C][Ring2][Ring1][Branch1][S][C][C][=C][Branch2][Ring1][#C][/C][=C][\C][=Branch1][C][=O][C][=C][C][Branch1][C][F][=C][Branch1][C][F][C][=C][Ring1][Branch2][C][Ring1][N][=C][Branch1][Ring1][C][#N][C][#N][S][C][Ring2][Ring1][#Branch2][=Ring2][Ring1][#Branch1][C][=Branch1][C][=O][C][=C][C][Branch1][C][F][=C][Branch1][C][F][C][=C][Ring1][Branch2][Ring2][#Branch1][Ring1],{[$]c1ccc(-c2c(F)c(F)c(-c3ccc(-c4cc5c(-c6cc(Cl)c([V])s6)c6sc([$])cc6c(-c6cc(Cl)c([V])s6)c5s4)s3)c3nn([Sc])nc23)s1}.N#CC(C#N)=C1/C(=C/c2cc3sc4c(c3s2)C(c2ccc([Mo])cc2)(c2ccc([Mo])cc2)c2cc3c(cc2-4)C(c2ccc([Mo])cc2)(c2ccc([Mo])cc2)c2c-3sc3cc(/C=C4\C(=O)c5cc(F)c(F)cc5C4=C(C#N)C#N)sc23)C(=O)c2cc(F)c(F)cc21
PT1,ITIC,-5.46,-3.59,-5.574285714285715,-3.9143137254901954,0.667,CB,20.0,_,25.0,2.13,213.7785,0.95,5.77,39.0,Cc1cc2c(-c3ccc([Cr])s3)c3sc(-c4sc(C)c5c4C(=O)c4c([Ti])sc([Ti])c4C5=O)cc3c(-c3ccc([Cr])s3)c2s1.N#CC(C#N)=C1/C(=C/c2cc3sc4c(c3s2)C(c2ccc([Mo])cc2)(c2ccc([Mo])cc2)c2cc3c(cc2-4)C(c2ccc([Mo])cc2)(c2ccc([Mo])cc2)c2c-3sc3cc(/C=C4\C(=O)c5ccccc5C4=C(C#N)C#N)sc23)C(=O)c2ccccc21,[C][C][=C][C][=C][Branch1][O][C][=C][C][=C][Branch1][C][Cr][S][Ring1][=Branch1][C][S][C][Branch2][Ring1][S][C][S][C][Branch1][C][C][=C][C][=Ring1][=Branch1][C][=Branch1][C][=O][C][=C][Branch1][C][Ti][S][C][Branch1][C][Ti][=C][Ring1][#Branch1][C][Ring1][N][=O][=C][C][=Ring2][Ring1][=Branch1][C][Branch1][O][C][=C][C][=C][Branch1][C][Cr][S][Ring1][=Branch1][=C][Ring2][Ring2][=Branch1][S][Ring2][Ring2][=Branch2].[N][#C][C][Branch1][Ring1][C][#N][=C][/C][=Branch2][=Branch2][#C][=C][/C][=C][C][S][C][=C][Branch1][#Branch1][C][=Ring1][Branch1][S][Ring1][Branch2][C][Branch1][N][C][=C][C][=C][Branch1][C][Mo][C][=C][Ring1][#Branch1][Branch1][N][C][=C][C][=C][Branch1][C][Mo][C][=C][Ring1][#Branch1][C][=C][C][=C][Branch1][Branch2][C][=C][Ring1][=Branch1][Ring2][Ring1][=Branch2][C][Branch1][N][C][=C][C][=C][Branch1][C][Mo][C][=C][Ring1][#Branch1][Branch1][N][C][=C][C][=C][Branch1][C][Mo][C][=C][Ring1][#Branch1][C][=C][Ring2][Ring1][Branch1][S][C][C][=C][Branch2][Ring1][=Branch2][/C][=C][\C][=Branch1][C][=O][C][=C][C][=C][C][=C][Ring1][=Branch1][C][Ring1][#Branch2][=C][Branch1][Ring1][C][#N][C][#N][S][C][Ring2][Ring1][Branch2][=Ring2][Ring1][Branch1][C][=Branch1][C][=O][C][=C][C][=C][C][=C][Ring1][=Branch1][Ring2][=Branch1][#C],{[$]c1cc2c(-c3ccc([Cr])s3)c3sc(-c4sc([$])c5c4C(=O)c4c([Ti])sc([Ti])c4C5=O)cc3c(-c3ccc([Cr])s3)c2s1}.N#CC(C#N)=C1/C(=C/c2cc3sc4c(c3s2)C(c2ccc([Mo])cc2)(c2ccc([Mo])cc2)c2cc3c(cc2-4)C(c2ccc([Mo])cc2)(c2ccc([Mo])cc2)c2c-3sc3cc(/C=C4\C(=O)c5ccccc5C4=C(C#N)C#N)sc23)C(=O)c2ccccc21