Donor,Acceptor,HOMO_D_eV,LUMO_D_eV,HOMO_A_eV,LUMO_A_eV,D_A_ratio_m_m,solvent,total_solids_conc_mg_mL,solvent_additive,annealing_temperature,PCE_percent,calc_PCE_percent,Voc_V,Jsc_mA_cm_pow_neg2,FF_percent,DA_SMILES,DA_SELFIES,DA_BigSMILES
FTAZ,INIC,-5.43,-3.3200000000000003,-5.45,-3.88,0.667,CF,12.5,DIO,25.0,7.7,748.593153,0.957,13.51,57.9,Cc1ccc(-c2c(F)c(F)c(-c3ccc(-c4cc5c([Co])c6sc(C)cc6c([Co])c5s4)s3)c3nn([Co])nc23)s1.N#CC(C#N)=C1/C(=C/c2cc3sc4c5c(sc4c3s2)-c2cc3c(cc2C5(c2ccc([Mo])cc2)c2ccc([Mo])cc2)-c2sc4c(sc5cc(/C=C6\C(=O)c7ccccc7C6=C(C#N)C#N)sc54)c2C3(c2ccc([Mo])cc2)c2ccc([Mo])cc2)C(=O)c2ccccc21,[C][C][=C][C][=C][Branch2][Branch1][P][C][=C][Branch1][C][F][C][Branch1][C][F][=C][Branch2][Ring2][#Branch1][C][=C][C][=C][Branch2][Ring1][N][C][=C][C][=C][Branch1][C][Co][C][S][C][Branch1][C][C][=C][C][=Ring1][=Branch1][C][Branch1][C][Co][=C][Ring1][N][S][Ring1][#C][S][Ring2][Ring1][Ring2][C][=N][N][Branch1][C][Co][N][=C][Ring2][Ring1][S][Ring1][=Branch1][S][Ring2][Ring2][Branch1].[N][#C][C][Branch1][Ring1][C][#N][=C][/C][=Branch2][#Branch2][=Branch2][=C][/C][=C][C][S][C][C][=C][Branch1][O][S][C][=Ring1][Branch1][C][=Ring1][Branch2][S][Ring1][O][C][=C][C][=C][Branch2][Ring1][S][C][=C][Ring1][=Branch1][C][Ring1][=N][Branch1][N][C][=C][C][=C][Branch1][C][Mo][C][=C][Ring1][#Branch1][C][=C][C][=C][Branch1][C][Mo][C][=C][Ring1][#Branch1][C][S][C][=C][Branch2][Ring2][Branch2][S][C][C][=C][Branch2][Ring1][=Branch2][/C][=C][\C][=Branch1][C][=O][C][=C][C][=C][C][=C][Ring1][=Branch1][C][Ring1][#Branch2][=C][Branch1][Ring1][C][#N][C][#N][S][C][=Ring2][Ring1][Branch1][Ring2][Ring1][Branch2][C][=Ring2][Ring1][O][C][Ring2][Ring2][#C][Branch1][N][C][=C][C][=C][Branch1][C][Mo][C][=C][Ring1][#Branch1][C][=C][C][=C][Branch1][C][Mo][C][=C][Ring1][#Branch1][C][=Branch1][C][=O][C][=C][C][=C][C][=C][Ring1][=Branch1][Ring2][#Branch1][Branch1],{[$]c1ccc(-c2c(F)c(F)c(-c3ccc(-c4cc5c([Co])c6sc([$])cc6c([Co])c5s4)s3)c3nn([Co])nc23)s1}.N#CC(C#N)=C1/C(=C/c2cc3sc4c5c(sc4c3s2)-c2cc3c(cc2C5(c2ccc([Mo])cc2)c2ccc([Mo])cc2)-c2sc4c(sc5cc(/C=C6\C(=O)c7ccccc7C6=C(C#N)C#N)sc54)c2C3(c2ccc([Mo])cc2)c2ccc([Mo])cc2)C(=O)c2ccccc21
FTAZ,INIC1,-5.43,-3.3200000000000003,-5.54,-3.97,0.667,CF,12.5,DIO,25.0,10.1,993.388061,0.929,16.63,64.3,Cc1ccc(-c2c(F)c(F)c(-c3ccc(-c4cc5c([Co])c6sc(C)cc6c([Co])c5s4)s3)c3nn([Co])nc23)s1.N#CC(C#N)=C1/C(=C/c2cc3sc4c5c(sc4c3s2)-c2cc3c(cc2C5(c2ccc([Mo])cc2)c2ccc([Mo])cc2)-c2sc4c(sc5cc(/C=C6\C(=O)c7c(F)cccc7C6=C(C#N)C#N)sc54)c2C3(c2ccc([Mo])cc2)c2ccc([Mo])cc2)C(=O)c2c(F)cccc21,[C][C][=C][C][=C][Branch2][Branch1][P][C][=C][Branch1][C][F][C][Branch1][C][F][=C][Branch2][Ring2][#Branch1][C][=C][C][=C][Branch2][Ring1][N][C][=C][C][=C][Branch1][C][Co][C][S][C][Branch1][C][C][=C][C][=Ring1][=Branch1][C][Branch1][C][Co][=C][Ring1][N][S][Ring1][#C][S][Ring2][Ring1][Ring2][C][=N][N][Branch1][C][Co][N][=C][Ring2][Ring1][S][Ring1][=Branch1][S][Ring2][Ring2][Branch1].[N][#C][C][Branch1][Ring1][C][#N][=C][/C][=Branch2][#Branch2][N][=C][/C][=C][C][S][C][C][=C][Branch1][O][S][C][=Ring1][Branch1][C][=Ring1][Branch2][S][Ring1][O][C][=C][C][=C][Branch2][Ring1][S][C][=C][Ring1][=Branch1][C][Ring1][=N][Branch1][N][C][=C][C][=C][Branch1][C][Mo][C][=C][Ring1][#Branch1][C][=C][C][=C][Branch1][C][Mo][C][=C][Ring1][#Branch1][C][S][C][=C][Branch2][Ring2][O][S][C][C][=C][Branch2][Ring1][N][/C][=C][\C][=Branch1][C][=O][C][=C][Branch1][C][F][C][=C][C][=C][Ring1][#Branch1][C][Ring1][O][=C][Branch1][Ring1][C][#N][C][#N][S][C][=Ring2][Ring1][=Branch1][Ring2][Ring1][=Branch2][C][=Ring2][Ring1][N][C][Ring2][Ring2][S][Branch1][N][C][=C][C][=C][Branch1][C][Mo][C][=C][Ring1][#Branch1][C][=C][C][=C][Branch1][C][Mo][C][=C][Ring1][#Branch1][C][=Branch1][C][=O][C][=C][Branch1][C][F][C][=C][C][=C][Ring1][#Branch1][Ring2][#Branch1][#Branch1],{[$]c1ccc(-c2c(F)c(F)c(-c3ccc(-c4cc5c([Co])c6sc([$])cc6c([Co])c5s4)s3)c3nn([Co])nc23)s1}.N#CC(C#N)=C1/C(=C/c2cc3sc4c5c(sc4c3s2)-c2cc3c(cc2C5(c2ccc([Mo])cc2)c2ccc([Mo])cc2)-c2sc4c(sc5cc(/C=C6\C(=O)c7c(F)cccc7C6=C(C#N)C#N)sc54)c2C3(c2ccc([Mo])cc2)c2ccc([Mo])cc2)C(=O)c2c(F)cccc21
FTAZ,INIC2,-5.43,-3.3200000000000003,-5.52,-3.98,0.667,CF,12.5,DIO,25.0,10.8,1059.226224,0.903,17.56,66.8,Cc1ccc(-c2c(F)c(F)c(-c3ccc(-c4cc5c([Co])c6sc(C)cc6c([Co])c5s4)s3)c3nn([Co])nc23)s1.N#CC(C#N)=C1/C(=C/c2cc3sc4c5c(sc4c3s2)-c2cc3c(cc2C5(c2ccc([Mo])cc2)c2ccc([Mo])cc2)-c2sc4c(sc5cc(/C=C6\C(=O)c7ccc(F)cc7C6=C(C#N)C#N)sc54)c2C3(c2ccc([Mo])cc2)c2ccc([Mo])cc2)C(=O)c2ccc(F)cc21,[C][C][=C][C][=C][Branch2][Branch1][P][C][=C][Branch1][C][F][C][Branch1][C][F][=C][Branch2][Ring2][#Branch1][C][=C][C][=C][Branch2][Ring1][N][C][=C][C][=C][Branch1][C][Co][C][S][C][Branch1][C][C][=C][C][=Ring1][=Branch1][C][Branch1][C][Co][=C][Ring1][N][S][Ring1][#C][S][Ring2][Ring1][Ring2][C][=N][N][Branch1][C][Co][N][=C][Ring2][Ring1][S][Ring1][=Branch1][S][Ring2][Ring2][Branch1].[N][#C][C][Branch1][Ring1][C][#N][=C][/C][=Branch2][#Branch2][N][=C][/C][=C][C][S][C][C][=C][Branch1][O][S][C][=Ring1][Branch1][C][=Ring1][Branch2][S][Ring1][O][C][=C][C][=C][Branch2][Ring1][S][C][=C][Ring1][=Branch1][C][Ring1][=N][Branch1][N][C][=C][C][=C][Branch1][C][Mo][C][=C][Ring1][#Branch1][C][=C][C][=C][Branch1][C][Mo][C][=C][Ring1][#Branch1][C][S][C][=C][Branch2][Ring2][O][S][C][C][=C][Branch2][Ring1][N][/C][=C][\C][=Branch1][C][=O][C][=C][C][=C][Branch1][C][F][C][=C][Ring1][#Branch1][C][Ring1][O][=C][Branch1][Ring1][C][#N][C][#N][S][C][=Ring2][Ring1][=Branch1][Ring2][Ring1][=Branch2][C][=Ring2][Ring1][N][C][Ring2][Ring2][S][Branch1][N][C][=C][C][=C][Branch1][C][Mo][C][=C][Ring1][#Branch1][C][=C][C][=C][Branch1][C][Mo][C][=C][Ring1][#Branch1][C][=Branch1][C][=O][C][=C][C][=C][Branch1][C][F][C][=C][Ring1][#Branch1][Ring2][#Branch1][#Branch1],{[$]c1ccc(-c2c(F)c(F)c(-c3ccc(-c4cc5c([Co])c6sc([$])cc6c([Co])c5s4)s3)c3nn([Co])nc23)s1}.N#CC(C#N)=C1/C(=C/c2cc3sc4c5c(sc4c3s2)-c2cc3c(cc2C5(c2ccc([Mo])cc2)c2ccc([Mo])cc2)-c2sc4c(sc5cc(/C=C6\C(=O)c7ccc(F)cc7C6=C(C#N)C#N)sc54)c2C3(c2ccc([Mo])cc2)c2ccc([Mo])cc2)C(=O)c2ccc(F)cc21
FTAZ,INIC3,-5.43,-3.3200000000000003,-5.52,-3.995,0.667,CF,12.5,DIO,25.0,11.5,1122.889392,0.857,19.44,67.4,Cc1ccc(-c2c(F)c(F)c(-c3ccc(-c4cc5c([Co])c6sc(C)cc6c([Co])c5s4)s3)c3nn([Co])nc23)s1.N#CC(C#N)=C1/C(=C/c2cc3sc4c5c(sc4c3s2)-c2cc3c(cc2C5(c2ccc([Mo])cc2)c2ccc([Mo])cc2)-c2sc4c(sc5cc(/C=C6\C(=O)c7cc(F)c(F)cc7C6=C(C#N)C#N)sc54)c2C3(c2ccc([Mo])cc2)c2ccc([Mo])cc2)C(=O)c2cc(F)c(F)cc21,[C][C][=C][C][=C][Branch2][Branch1][P][C][=C][Branch1][C][F][C][Branch1][C][F][=C][Branch2][Ring2][#Branch1][C][=C][C][=C][Branch2][Ring1][N][C][=C][C][=C][Branch1][C][Co][C][S][C][Branch1][C][C][=C][C][=Ring1][=Branch1][C][Branch1][C][Co][=C][Ring1][N][S][Ring1][#C][S][Ring2][Ring1][Ring2][C][=N][N][Branch1][C][Co][N][=C][Ring2][Ring1][S][Ring1][=Branch1][S][Ring2][Ring2][Branch1].[N][#C][C][Branch1][Ring1][C][#N][=C][/C][=Branch2][#Branch2][#C][=C][/C][=C][C][S][C][C][=C][Branch1][O][S][C][=Ring1][Branch1][C][=Ring1][Branch2][S][Ring1][O][C][=C][C][=C][Branch2][Ring1][S][C][=C][Ring1][=Branch1][C][Ring1][=N][Branch1][N][C][=C][C][=C][Branch1][C][Mo][C][=C][Ring1][#Branch1][C][=C][C][=C][Branch1][C][Mo][C][=C][Ring1][#Branch1][C][S][C][=C][Branch2][Ring2][=C][S][C][C][=C][Branch2][Ring1][#C][/C][=C][\C][=Branch1][C][=O][C][=C][C][Branch1][C][F][=C][Branch1][C][F][C][=C][Ring1][Branch2][C][Ring1][N][=C][Branch1][Ring1][C][#N][C][#N][S][C][=Ring2][Ring1][#Branch1][Ring2][Ring1][#Branch2][C][=Ring2][Ring1][=N][C][Ring2][Ring2][P][Branch1][N][C][=C][C][=C][Branch1][C][Mo][C][=C][Ring1][#Branch1][C][=C][C][=C][Branch1][C][Mo][C][=C][Ring1][#Branch1][C][=Branch1][C][=O][C][=C][C][Branch1][C][F][=C][Branch1][C][F][C][=C][Ring1][Branch2][Ring2][#Branch1][=Branch2],{[$]c1ccc(-c2c(F)c(F)c(-c3ccc(-c4cc5c([Co])c6sc([$])cc6c([Co])c5s4)s3)c3nn([Co])nc23)s1}.N#CC(C#N)=C1/C(=C/c2cc3sc4c5c(sc4c3s2)-c2cc3c(cc2C5(c2ccc([Mo])cc2)c2ccc([Mo])cc2)-c2sc4c(sc5cc(/C=C6\C(=O)c7cc(F)c(F)cc7C6=C(C#N)C#N)sc54)c2C3(c2ccc([Mo])cc2)c2ccc([Mo])cc2)C(=O)c2cc(F)c(F)cc21
PTB7-Th,F6IC,-5.21,-3.542368421052632,-5.63,-4.115,0.588,CF,10.0,DPE,25.0,7.1,706.60928,0.611,18.07,64.0,Cc1cc2c(-c3ccc([Cr])s3)c3sc(-c4sc(C)c5c(F)c(C(=O)O[Cr])sc45)cc3c(-c3ccc([Cr])s3)c2s1.N#CC(C#N)=C1/C(=C/c2cc3c(s2)-c2sc4c5c(sc4c2C3(c2ccc([Mo])cc2)c2ccc([Mo])cc2)-c2sc(/C=C3\C(=O)c4cc(F)c(F)cc4C3=C(C#N)C#N)cc2C5(c2ccc([Mo])cc2)c2ccc([Mo])cc2)C(=O)c2cc(F)c(F)cc21,[C][C][=C][C][=C][Branch1][O][C][=C][C][=C][Branch1][C][Cr][S][Ring1][=Branch1][C][S][C][Branch2][Ring1][O][C][S][C][Branch1][C][C][=C][C][Branch1][C][F][=C][Branch1][#Branch1][C][=Branch1][C][=O][O][Cr][S][C][=Ring1][=C][Ring1][#Branch2][=C][C][=Ring2][Ring1][Ring1][C][Branch1][O][C][=C][C][=C][Branch1][C][Cr][S][Ring1][=Branch1][=C][Ring2][Ring2][Ring1][S][Ring2][Ring2][=Branch1].[N][#C][C][Branch1][Ring1][C][#N][=C][/C][=Branch2][=Branch2][#Branch2][=C][/C][=C][C][=C][Branch1][Ring2][S][Ring1][Branch1][C][S][C][C][=C][Branch2][Ring2][Ring1][S][C][=Ring1][Branch1][C][=Ring1][Branch2][C][Ring1][N][Branch1][N][C][=C][C][=C][Branch1][C][Mo][C][=C][Ring1][#Branch1][C][=C][C][=C][Branch1][C][Mo][C][=C][Ring1][#Branch1][C][S][C][Branch2][Ring1][#C][/C][=C][\C][=Branch1][C][=O][C][=C][C][Branch1][C][F][=C][Branch1][C][F][C][=C][Ring1][Branch2][C][Ring1][N][=C][Branch1][Ring1][C][#N][C][#N][=C][C][=Ring2][Ring1][#Branch1][C][Ring2][Ring2][N][Branch1][N][C][=C][C][=C][Branch1][C][Mo][C][=C][Ring1][#Branch1][C][=C][C][=C][Branch1][C][Mo][C][=C][Ring1][#Branch1][C][=Branch1][C][=O][C][=C][C][Branch1][C][F][=C][Branch1][C][F][C][=C][Ring1][Branch2][Ring2][=Branch1][#C],{[$]c1cc2c(-c3ccc([Cr])s3)c3sc(-c4sc([$])c5c(F)c(C(=O)O[Cr])sc45)cc3c(-c3ccc([Cr])s3)c2s1}.N#CC(C#N)=C1/C(=C/c2cc3c(s2)-c2sc4c5c(sc4c2C3(c2ccc([Mo])cc2)c2ccc([Mo])cc2)-c2sc(/C=C3\C(=O)c4cc(F)c(F)cc4C3=C(C#N)C#N)cc2C5(c2ccc([Mo])cc2)c2ccc([Mo])cc2)C(=O)c2cc(F)c(F)cc21
PTB7-Th,F8IC,-5.21,-3.542368421052632,-5.44,-4.07,0.588,CF,10.0,DPE,25.0,10.9,1086.79168,0.64,25.12,67.6,Cc1cc2c(-c3ccc([Cr])s3)c3sc(-c4sc(C)c5c(F)c(C(=O)O[Cr])sc45)cc3c(-c3ccc([Cr])s3)c2s1.N#CC(C#N)=C1/C(=C/c2cc3sc4c(c3s2)C(c2ccc([Mo])cc2)(c2ccc([Mo])cc2)c2c-4sc3c4c(sc23)-c2sc3cc(/C=C5\C(=O)c6cc(F)c(F)cc6C5=C(C#N)C#N)sc3c2C4(c2ccc([Mo])cc2)c2ccc([Mo])cc2)C(=O)c2cc(F)c(F)cc21,[C][C][=C][C][=C][Branch1][O][C][=C][C][=C][Branch1][C][Cr][S][Ring1][=Branch1][C][S][C][Branch2][Ring1][O][C][S][C][Branch1][C][C][=C][C][Branch1][C][F][=C][Branch1][#Branch1][C][=Branch1][C][=O][O][Cr][S][C][=Ring1][=C][Ring1][#Branch2][=C][C][=Ring2][Ring1][Ring1][C][Branch1][O][C][=C][C][=C][Branch1][C][Cr][S][Ring1][=Branch1][=C][Ring2][Ring2][Ring1][S][Ring2][Ring2][=Branch1].[N][#C][C][Branch1][Ring1][C][#N][=C][/C][=Branch2][#Branch2][#Branch1][=C][/C][=C][C][S][C][=C][Branch1][#Branch1][C][=Ring1][Branch1][S][Ring1][Branch2][C][Branch1][N][C][=C][C][=C][Branch1][C][Mo][C][=C][Ring1][#Branch1][Branch1][N][C][=C][C][=C][Branch1][C][Mo][C][=C][Ring1][#Branch1][C][=C][Ring2][Ring1][Branch1][S][C][C][=C][Branch1][#Branch1][S][C][Ring1][Branch2][=Ring1][Branch1][C][S][C][C][=C][Branch2][Ring1][#C][/C][=C][\C][=Branch1][C][=O][C][=C][C][Branch1][C][F][=C][Branch1][C][F][C][=C][Ring1][Branch2][C][Ring1][N][=C][Branch1][Ring1][C][#N][C][#N][S][C][=Ring2][Ring1][#Branch1][C][=Ring2][Ring1][#Branch2][C][Ring2][Ring1][#C][Branch1][N][C][=C][C][=C][Branch1][C][Mo][C][=C][Ring1][#Branch1][C][=C][C][=C][Branch1][C][Mo][C][=C][Ring1][#Branch1][C][=Branch1][C][=O][C][=C][C][Branch1][C][F][=C][Branch1][C][F][C][=C][Ring1][Branch2][Ring2][#Branch1][Branch1],{[$]c1cc2c(-c3ccc([Cr])s3)c3sc(-c4sc([$])c5c(F)c(C(=O)O[Cr])sc45)cc3c(-c3ccc([Cr])s3)c2s1}.N#CC(C#N)=C1/C(=C/c2cc3sc4c(c3s2)C(c2ccc([Mo])cc2)(c2ccc([Mo])cc2)c2c-4sc3c4c(sc23)-c2sc3cc(/C=C5\C(=O)c6cc(F)c(F)cc6C5=C(C#N)C#N)sc3c2C4(c2ccc([Mo])cc2)c2ccc([Mo])cc2)C(=O)c2cc(F)c(F)cc21
PTB7-Th,F10IC,-5.21,-3.542368421052632,-5.26,-3.96,0.588,CF,10.0,DPE,25.0,10.2,1015.75412,0.73,20.83,66.8,Cc1cc2c(-c3ccc([Cr])s3)c3sc(-c4sc(C)c5c(F)c(C(=O)O[Cr])sc45)cc3c(-c3ccc([Cr])s3)c2s1.N#CC(C#N)=C1/C(=C/c2cc3sc4c5c(sc4c3s2)-c2sc3c4c(sc3c2C5(c2ccc([Mo])cc2)c2ccc([Mo])cc2)-c2sc3c(sc5cc(/C=C6\C(=O)c7cc(F)c(F)cc7C6=C(C#N)C#N)sc53)c2C4(c2ccc([Mo])cc2)c2ccc([Mo])cc2)C(=O)c2cc(F)c(F)cc21,[C][C][=C][C][=C][Branch1][O][C][=C][C][=C][Branch1][C][Cr][S][Ring1][=Branch1][C][S][C][Branch2][Ring1][O][C][S][C][Branch1][C][C][=C][C][Branch1][C][F][=C][Branch1][#Branch1][C][=Branch1][C][=O][O][Cr][S][C][=Ring1][=C][Ring1][#Branch2][=C][C][=Ring2][Ring1][Ring1][C][Branch1][O][C][=C][C][=C][Branch1][C][Cr][S][Ring1][=Branch1][=C][Ring2][Ring2][Ring1][S][Ring2][Ring2][=Branch1].[N][#C][C][Branch1][Ring1][C][#N][=C][/C][=Branch2][O][Ring1][=C][/C][=C][C][S][C][C][=C][Branch1][O][S][C][=Ring1][Branch1][C][=Ring1][Branch2][S][Ring1][O][C][S][C][C][=C][Branch2][Ring2][Ring1][S][C][=Ring1][Branch1][C][=Ring1][Branch2][C][Ring1][#C][Branch1][N][C][=C][C][=C][Branch1][C][Mo][C][=C][Ring1][#Branch1][C][=C][C][=C][Branch1][C][Mo][C][=C][Ring1][#Branch1][C][S][C][=C][Branch2][Ring2][=C][S][C][C][=C][Branch2][Ring1][#C][/C][=C][\C][=Branch1][C][=O][C][=C][C][Branch1][C][F][=C][Branch1][C][F][C][=C][Ring1][Branch2][C][Ring1][N][=C][Branch1][Ring1][C][#N][C][#N][S][C][=Ring2][Ring1][#Branch1][Ring2][Ring1][#Branch2][C][=Ring2][Ring1][=N][C][Ring2][Branch1][C][Branch1][N][C][=C][C][=C][Branch1][C][Mo][C][=C][Ring1][#Branch1][C][=C][C][=C][Branch1][C][Mo][C][=C][Ring1][#Branch1][C][=Branch1][C][=O][C][=C][C][Branch1][C][F][=C][Branch1][C][F][C][=C][Ring1][Branch2][Ring2][#Branch1][O],{[$]c1cc2c(-c3ccc([Cr])s3)c3sc(-c4sc([$])c5c(F)c(C(=O)O[Cr])sc45)cc3c(-c3ccc([Cr])s3)c2s1}.N#CC(C#N)=C1/C(=C/c2cc3sc4c5c(sc4c3s2)-c2sc3c4c(sc3c2C5(c2ccc([Mo])cc2)c2ccc([Mo])cc2)-c2sc3c(sc5cc(/C=C6\C(=O)c7cc(F)c(F)cc7C6=C(C#N)C#N)sc53)c2C4(c2ccc([Mo])cc2)c2ccc([Mo])cc2)C(=O)c2cc(F)c(F)cc21
PBDTTT-C-T,DC-IDT2T,-5.125,-3.265,-5.4625,-3.9225,1.2,o-DCB:CF (6.667:1),20.0,_,25.0,3.93,392.0931,0.9,8.33,52.3,Cc1cc2c(-c3ccc([Cr])s3)c3sc(-c4sc(C)c5cc(C(=O)[Cr])sc45)cc3c(-c3ccc([Cr])s3)c2s1.N#CC(C#N)=C1/C(=C/c2ccc(-c3cc4c(s3)-c3cc5c(cc3C4(c3ccc([Mo])cc3)c3ccc([Mo])cc3)-c3sc(-c4ccc(/C=C6\C(=O)c7ccccc7C6=C(C#N)C#N)s4)cc3C5(c3ccc([Mo])cc3)c3ccc([Mo])cc3)s2)C(=O)c2ccccc21,[C][C][=C][C][=C][Branch1][O][C][=C][C][=C][Branch1][C][Cr][S][Ring1][=Branch1][C][S][C][Branch2][Ring1][#Branch1][C][S][C][Branch1][C][C][=C][C][=C][Branch1][=Branch1][C][=Branch1][C][=O][Cr][S][C][=Ring1][N][Ring1][Branch2][=C][C][=Ring1][P][C][Branch1][O][C][=C][C][=C][Branch1][C][Cr][S][Ring1][=Branch1][=C][Ring2][Ring1][P][S][Ring2][Ring2][Ring2].[N][#C][C][Branch1][Ring1][C][#N][=C][/C][=Branch2][#Branch2][=Branch1][=C][/C][=C][C][=C][Branch2][=Branch2][#Branch2][C][=C][C][=C][Branch1][Ring2][S][Ring1][Branch1][C][=C][C][=C][Branch2][Ring1][S][C][=C][Ring1][=Branch1][C][Ring1][#Branch2][Branch1][N][C][=C][C][=C][Branch1][C][Mo][C][=C][Ring1][#Branch1][C][=C][C][=C][Branch1][C][Mo][C][=C][Ring1][#Branch1][C][S][C][Branch2][Ring2][Ring2][C][=C][C][=C][Branch2][Ring1][=Branch2][/C][=C][\C][=Branch1][C][=O][C][=C][C][=C][C][=C][Ring1][=Branch1][C][Ring1][#Branch2][=C][Branch1][Ring1][C][#N][C][#N][S][Ring2][Ring1][Branch1][=C][C][=Ring2][Ring1][#Branch2][C][Ring2][Ring2][=C][Branch1][N][C][=C][C][=C][Branch1][C][Mo][C][=C][Ring1][#Branch1][C][=C][C][=C][Branch1][C][Mo][C][=C][Ring1][#Branch1][S][Ring2][=Branch1][Branch2][C][=Branch1][C][=O][C][=C][C][=C][C][=C][Ring1][=Branch1][Ring2][#Branch1][Ring1],{[$]c1cc2c(-c3ccc([Cr])s3)c3sc(-c4sc([$])c5cc(C(=O)[Cr])sc45)cc3c(-c3ccc([Cr])s3)c2s1}.N#CC(C#N)=C1/C(=C/c2ccc(-c3cc4c(s3)-c3cc5c(cc3C4(c3ccc([Mo])cc3)c3ccc([Mo])cc3)-c3sc(-c4ccc(/C=C6\C(=O)c7ccccc7C6=C(C#N)C#N)s4)cc3C5(c3ccc([Mo])cc3)c3ccc([Mo])cc3)s2)C(=O)c2ccccc21
Pff4TBT-2DT,FBR,-5.34,-3.7,-5.786666666666666,-3.673333333333333,1.0,CB,20.0,_,25.0,7.8,785.68,1.12,11.5,61.0,Cc1ccc(-c2ccc(-c3sc(-c4c(F)c(F)c(-c5cc([Cd])c(C)s5)c5nsnc45)cc3[Cd])s2)s1.CCN1C(=O)/C(=C/c2ccc(-c3ccc4c(c3)C([Ti])([Ti])c3cc(-c5ccc(/C=C6\SC(=S)N(CC)C6=O)c6nsnc56)ccc3-4)c3nsnc23)SC1=S,[C][C][=C][C][=C][Branch2][Branch1][O][C][=C][C][=C][Branch2][Ring2][S][C][S][C][Branch2][Ring2][Ring2][C][=C][Branch1][C][F][C][Branch1][C][F][=C][Branch1][=C][C][=C][C][Branch1][C][Cd][=C][Branch1][C][C][S][Ring1][#Branch1][C][=N][S][N][=C][Ring2][Ring1][C][Ring1][Branch1][=C][C][=Ring2][Ring1][#Branch1][Cd][S][Ring2][Ring1][=N][S][Ring2][Ring2][C].[C][C][N][C][=Branch1][C][=O][/C][=Branch2][#Branch1][Ring1][=C][/C][=C][C][=C][Branch2][Branch1][P][C][=C][C][=C][C][=Branch1][Ring2][=C][Ring1][=Branch1][C][Branch1][C][Ti][Branch1][C][Ti][C][=C][C][Branch2][Ring1][P][C][=C][C][=C][Branch1][P][/C][=C][\S][C][=Branch1][C][=S][N][Branch1][Ring1][C][C][C][Ring1][Branch2][=O][C][=N][S][N][=C][Ring2][Ring1][Ring1][Ring1][Branch1][=C][C][=C][Ring2][Ring1][=Branch2][Ring2][Ring1][#C][C][=N][S][N][=C][Ring2][Ring2][O][Ring1][Branch1][S][C][Ring2][Branch1][C][=S],{[$]c1ccc(-c2ccc(-c3sc(-c4c(F)c(F)c(-c5cc([Cd])c([$])s5)c5nsnc45)cc3[Cd])s2)s1}.CCN1C(=O)/C(=C/c2ccc(-c3ccc4c(c3)C([Ti])([Ti])c3cc(-c5ccc(/C=C6\SC(=S)N(CC)C6=O)c6nsnc56)ccc3-4)c3nsnc23)SC1=S
Pff4TBT-2DT,FTTB,-5.34,-3.7,-5.65,-3.62,1.0,CB,20.0,_,25.0,5.0,486.675,1.05,10.3,45.0,Cc1ccc(-c2ccc(-c3sc(-c4c(F)c(F)c(-c5cc([Cd])c(C)s5)c5nsnc45)cc3[Cd])s2)s1.CCN1C(=O)C(=Cc2ccc(-c3ccc4c(c3)C([Ti])([Ti])c3cc(-c5ccc(C=C6C(=O)N(CC)C(=S)N(CC)C6=O)s5)ccc3-4)s2)C(=O)N(CC)C1=S,[C][C][=C][C][=C][Branch2][Branch1][O][C][=C][C][=C][Branch2][Ring2][S][C][S][C][Branch2][Ring2][Ring2][C][=C][Branch1][C][F][C][Branch1][C][F][=C][Branch1][=C][C][=C][C][Branch1][C][Cd][=C][Branch1][C][C][S][Ring1][#Branch1][C][=N][S][N][=C][Ring2][Ring1][C][Ring1][Branch1][=C][C][=Ring2][Ring1][#Branch1][Cd][S][Ring2][Ring1][=N][S][Ring2][Ring2][C].[C][C][N][C][=Branch1][C][=O][C][=Branch2][=Branch1][S][=C][C][=C][C][=C][Branch2][=Branch1][Ring2][C][=C][C][=C][C][=Branch1][Ring2][=C][Ring1][=Branch1][C][Branch1][C][Ti][Branch1][C][Ti][C][=C][C][Branch2][Ring2][Ring2][C][=C][C][=C][Branch2][Ring1][=Branch2][C][=C][C][=Branch1][C][=O][N][Branch1][Ring1][C][C][C][=Branch1][C][=S][N][Branch1][Ring1][C][C][C][Ring1][N][=O][S][Ring2][Ring1][Ring1][=C][C][=C][Ring2][Ring1][=Branch2][Ring2][Ring1][#C][S][Ring2][Ring2][#Branch1][C][=Branch1][C][=O][N][Branch1][Ring1][C][C][C][Ring2][Branch1][C][=S],{[$]c1ccc(-c2ccc(-c3sc(-c4c(F)c(F)c(-c5cc([Cd])c([$])s5)c5nsnc45)cc3[Cd])s2)s1}.CCN1C(=O)C(=Cc2ccc(-c3ccc4c(c3)C([Ti])([Ti])c3cc(-c5ccc(C=C6C(=O)N(CC)C(=S)N(CC)C6=O)s5)ccc3-4)s2)C(=O)N(CC)C1=S
Pff4TBT-2DT,IDFBR,-5.34,-3.7,-5.75,-3.7,1.0,CB,20.0,_,25.0,1.75,180.576,1.08,4.4,38.0,Cc1ccc(-c2ccc(-c3sc(-c4c(F)c(F)c(-c5cc([Cd])c(C)s5)c5nsnc45)cc3[Cd])s2)s1.CCN1C(=O)/C(=C/c2ccc(-c3ccc4c(c3)C([Cr])([Cr])c3cc5c(cc3-4)C([Cr])([Cr])c3cc(-c4ccc(/C=C6\SC(=S)N(CC)C6=O)c6nsnc46)ccc3-5)c3nsnc23)SC1=S,[C][C][=C][C][=C][Branch2][Branch1][O][C][=C][C][=C][Branch2][Ring2][S][C][S][C][Branch2][Ring2][Ring2][C][=C][Branch1][C][F][C][Branch1][C][F][=C][Branch1][=C][C][=C][C][Branch1][C][Cd][=C][Branch1][C][C][S][Ring1][#Branch1][C][=N][S][N][=C][Ring2][Ring1][C][Ring1][Branch1][=C][C][=Ring2][Ring1][#Branch1][Cd][S][Ring2][Ring1][=N][S][Ring2][Ring2][C].[C][C][N][C][=Branch1][C][=O][/C][=Branch2][Branch2][=Branch1][=C][/C][=C][C][=C][Branch2][#Branch1][Ring2][C][=C][C][=C][C][=Branch1][Ring2][=C][Ring1][=Branch1][C][Branch1][C][Cr][Branch1][C][Cr][C][=C][C][=C][Branch1][#Branch1][C][=C][Ring1][=Branch1][Ring1][N][C][Branch1][C][Cr][Branch1][C][Cr][C][=C][C][Branch2][Ring1][P][C][=C][C][=C][Branch1][P][/C][=C][\S][C][=Branch1][C][=S][N][Branch1][Ring1][C][C][C][Ring1][Branch2][=O][C][=N][S][N][=C][Ring2][Ring1][Ring1][Ring1][Branch1][=C][C][=C][Ring2][Ring1][=Branch2][Ring2][Ring1][S][C][=N][S][N][=C][Ring2][Branch1][Ring2][Ring1][Branch1][S][C][Ring2][Branch1][O][=S],{[$]c1ccc(-c2ccc(-c3sc(-c4c(F)c(F)c(-c5cc([Cd])c([$])s5)c5nsnc45)cc3[Cd])s2)s1}.CCN1C(=O)/C(=C/c2ccc(-c3ccc4c(c3)C([Cr])([Cr])c3cc5c(cc3-4)C([Cr])([Cr])c3cc(-c4ccc(/C=C6\SC(=S)N(CC)C6=O)c6nsnc46)ccc3-5)c3nsnc23)SC1=S