Donor,Acceptor,HOMO_D_eV,LUMO_D_eV,HOMO_A_eV,LUMO_A_eV,D_A_ratio_m_m,solvent,total_solids_conc_mg_mL,solvent_additive,annealing_temperature,PCE_percent,calc_PCE_percent,Voc_V,Jsc_mA_cm_pow_neg2,FF_percent,DA_SMILES,DA_SELFIES,DA_BigSMILES
FTAZ,ITIC-Th,-5.43,-3.3200000000000003,-5.673333333333334,-3.908888888888889,0.667,CF,12.0,DIO,25.0,8.88,887.877936,0.915,15.84,61.26,Cc1ccc(-c2c(F)c(F)c(-c3ccc(-c4cc5c([Co])c6sc(C)cc6c([Co])c5s4)s3)c3nn([Co])nc23)s1.N#CC(C#N)=C1/C(=C/c2cc3sc4c(c3s2)C(c2ccc([Mo])s2)(c2ccc([Mo])s2)c2cc3c(cc2-4)C(c2ccc([Mo])s2)(c2ccc([Mo])s2)c2c-3sc3cc(/C=C4\C(=O)c5ccccc5C4=C(C#N)C#N)sc23)C(=O)c2ccccc21,[C][C][=C][C][=C][Branch2][Branch1][P][C][=C][Branch1][C][F][C][Branch1][C][F][=C][Branch2][Ring2][#Branch1][C][=C][C][=C][Branch2][Ring1][N][C][=C][C][=C][Branch1][C][Co][C][S][C][Branch1][C][C][=C][C][=Ring1][=Branch1][C][Branch1][C][Co][=C][Ring1][N][S][Ring1][#C][S][Ring2][Ring1][Ring2][C][=N][N][Branch1][C][Co][N][=C][Ring2][Ring1][S][Ring1][=Branch1][S][Ring2][Ring2][Branch1].[N][#C][C][Branch1][Ring1][C][#N][=C][/C][=Branch2][=Branch2][O][=C][/C][=C][C][S][C][=C][Branch1][#Branch1][C][=Ring1][Branch1][S][Ring1][Branch2][C][Branch1][O][C][=C][C][=C][Branch1][C][Mo][S][Ring1][=Branch1][Branch1][O][C][=C][C][=C][Branch1][C][Mo][S][Ring1][=Branch1][C][=C][C][=C][Branch1][Branch2][C][=C][Ring1][=Branch1][Ring2][Ring1][#Branch1][C][Branch1][O][C][=C][C][=C][Branch1][C][Mo][S][Ring1][=Branch1][Branch1][O][C][=C][C][=C][Branch1][C][Mo][S][Ring1][=Branch1][C][=C][Ring2][Ring1][Ring1][S][C][C][=C][Branch2][Ring1][=Branch2][/C][=C][\C][=Branch1][C][=O][C][=C][C][=C][C][=C][Ring1][=Branch1][C][Ring1][#Branch2][=C][Branch1][Ring1][C][#N][C][#N][S][C][Ring2][Ring1][Branch2][=Ring2][Ring1][Branch1][C][=Branch1][C][=O][C][=C][C][=C][C][=C][Ring1][=Branch1][Ring2][=Branch1][O],{[$]c1ccc(-c2c(F)c(F)c(-c3ccc(-c4cc5c([Co])c6sc([$])cc6c([Co])c5s4)s3)c3nn([Co])nc23)s1}.N#CC(C#N)=C1/C(=C/c2cc3sc4c(c3s2)C(c2ccc([Mo])s2)(c2ccc([Mo])s2)c2cc3c(cc2-4)C(c2ccc([Mo])s2)(c2ccc([Mo])s2)c2c-3sc3cc(/C=C4\C(=O)c5ccccc5C4=C(C#N)C#N)sc23)C(=O)c2ccccc21
FTAZ,ITIC-Th1,-5.43,-3.3200000000000003,-5.720000000000001,-4.065,0.667,CF,12.0,DIO,25.0,12.1,1209.995564,0.849,19.33,73.73,Cc1ccc(-c2c(F)c(F)c(-c3ccc(-c4cc5c([Co])c6sc(C)cc6c([Co])c5s4)s3)c3nn([Co])nc23)s1.N#CC(C#N)=C1C(=Cc2cc3sc4c(c3s2)C(c2ccc([Mo])s2)(c2ccc([Mo])s2)c2cc3c(cc2-4)C(c2ccc([Mo])s2)(c2ccc([Mo])s2)c2c-3sc3cc(C=C4C(=O)c5cc(F)ccc5C4=C(C#N)C#N)sc23)C(=O)c2cc(F)ccc21,[C][C][=C][C][=C][Branch2][Branch1][P][C][=C][Branch1][C][F][C][Branch1][C][F][=C][Branch2][Ring2][#Branch1][C][=C][C][=C][Branch2][Ring1][N][C][=C][C][=C][Branch1][C][Co][C][S][C][Branch1][C][C][=C][C][=Ring1][=Branch1][C][Branch1][C][Co][=C][Ring1][N][S][Ring1][#C][S][Ring2][Ring1][Ring2][C][=N][N][Branch1][C][Co][N][=C][Ring2][Ring1][S][Ring1][=Branch1][S][Ring2][Ring2][Branch1].[N][#C][C][Branch1][Ring1][C][#N][=C][C][=Branch2][=Branch2][=C][=C][C][=C][C][S][C][=C][Branch1][#Branch1][C][=Ring1][Branch1][S][Ring1][Branch2][C][Branch1][O][C][=C][C][=C][Branch1][C][Mo][S][Ring1][=Branch1][Branch1][O][C][=C][C][=C][Branch1][C][Mo][S][Ring1][=Branch1][C][=C][C][=C][Branch1][Branch2][C][=C][Ring1][=Branch1][Ring2][Ring1][#Branch1][C][Branch1][O][C][=C][C][=C][Branch1][C][Mo][S][Ring1][=Branch1][Branch1][O][C][=C][C][=C][Branch1][C][Mo][S][Ring1][=Branch1][C][=C][Ring2][Ring1][Ring1][S][C][C][=C][Branch2][Ring1][N][C][=C][C][=Branch1][C][=O][C][=C][C][Branch1][C][F][=C][C][=C][Ring1][#Branch1][C][Ring1][O][=C][Branch1][Ring1][C][#N][C][#N][S][C][Ring2][Ring1][=Branch2][=Ring2][Ring1][=Branch1][C][=Branch1][C][=O][C][=C][C][Branch1][C][F][=C][C][=C][Ring1][#Branch1][Ring2][=Branch1][=N],{[$]c1ccc(-c2c(F)c(F)c(-c3ccc(-c4cc5c([Co])c6sc([$])cc6c([Co])c5s4)s3)c3nn([Co])nc23)s1}.N#CC(C#N)=C1C(=Cc2cc3sc4c(c3s2)C(c2ccc([Mo])s2)(c2ccc([Mo])s2)c2cc3c(cc2-4)C(c2ccc([Mo])s2)(c2ccc([Mo])s2)c2c-3sc3cc(C=C4C(=O)c5cc(F)ccc5C4=C(C#N)C#N)sc23)C(=O)c2cc(F)ccc21
FTAZ,ITIC-Th2,-5.43,-3.3200000000000003,-5.75,-4.07,0.667,CF,12.5,DIO,25.0,9.06,904.5819783,0.751,17.19,70.07,Cc1ccc(-c2c(F)c(F)c(-c3ccc(-c4cc5c([Co])c6sc(C)cc6c([Co])c5s4)s3)c3nn([Co])nc23)s1.N#CC(C#N)=C1/C(=C/c2cc3sc4c(c3s2)C(c2ccc([Mo])s2)(c2ccc([Mo])s2)c2cc3c(cc2-4)C(c2ccc([Mo])s2)(c2ccc([Mo])s2)c2c-3sc3cc(/C=C4\C(=O)c5cc(F)c(F)cc5C4=C(C#N)C#N)sc23)C(=O)c2cc(F)c(F)cc21,[C][C][=C][C][=C][Branch2][Branch1][P][C][=C][Branch1][C][F][C][Branch1][C][F][=C][Branch2][Ring2][#Branch1][C][=C][C][=C][Branch2][Ring1][N][C][=C][C][=C][Branch1][C][Co][C][S][C][Branch1][C][C][=C][C][=Ring1][=Branch1][C][Branch1][C][Co][=C][Ring1][N][S][Ring1][#C][S][Ring2][Ring1][Ring2][C][=N][N][Branch1][C][Co][N][=C][Ring2][Ring1][S][Ring1][=Branch1][S][Ring2][Ring2][Branch1].[N][#C][C][Branch1][Ring1][C][#N][=C][/C][=Branch2][=Branch2][P][=C][/C][=C][C][S][C][=C][Branch1][#Branch1][C][=Ring1][Branch1][S][Ring1][Branch2][C][Branch1][O][C][=C][C][=C][Branch1][C][Mo][S][Ring1][=Branch1][Branch1][O][C][=C][C][=C][Branch1][C][Mo][S][Ring1][=Branch1][C][=C][C][=C][Branch1][Branch2][C][=C][Ring1][=Branch1][Ring2][Ring1][#Branch1][C][Branch1][O][C][=C][C][=C][Branch1][C][Mo][S][Ring1][=Branch1][Branch1][O][C][=C][C][=C][Branch1][C][Mo][S][Ring1][=Branch1][C][=C][Ring2][Ring1][Ring1][S][C][C][=C][Branch2][Ring1][#C][/C][=C][\C][=Branch1][C][=O][C][=C][C][Branch1][C][F][=C][Branch1][C][F][C][=C][Ring1][Branch2][C][Ring1][N][=C][Branch1][Ring1][C][#N][C][#N][S][C][Ring2][Ring1][#Branch2][=Ring2][Ring1][#Branch1][C][=Branch1][C][=O][C][=C][C][Branch1][C][F][=C][Branch1][C][F][C][=C][Ring1][Branch2][Ring2][=Branch1][#C],{[$]c1ccc(-c2c(F)c(F)c(-c3ccc(-c4cc5c([Co])c6sc([$])cc6c([Co])c5s4)s3)c3nn([Co])nc23)s1}.N#CC(C#N)=C1/C(=C/c2cc3sc4c(c3s2)C(c2ccc([Mo])s2)(c2ccc([Mo])s2)c2cc3c(cc2-4)C(c2ccc([Mo])s2)(c2ccc([Mo])s2)c2c-3sc3cc(/C=C4\C(=O)c5cc(F)c(F)cc5C4=C(C#N)C#N)sc23)C(=O)c2cc(F)c(F)cc21
FTAZ,ITIC-Th3,-5.43,-3.3200000000000003,-5.67,-3.73,0.667,CF,12.5,DIO,25.0,10.7,1074.084736,0.962,16.34,68.33,Cc1ccc(-c2c(F)c(F)c(-c3ccc(-c4cc5c([Co])c6sc(C)cc6c([Co])c5s4)s3)c3nn([Co])nc23)s1.COc1ccc2c(c1)C(=C(C#N)C#N)/C(=C/c1cc3sc4c(c3s1)C(c1ccc([Mo])s1)(c1ccc([Mo])s1)c1cc3c(cc1-4)C(c1ccc([Mo])s1)(c1ccc([Mo])s1)c1c-3sc3cc(/C=C4\C(=O)c5ccc(OC)cc5C4=C(C#N)C#N)sc13)C2=O,[C][C][=C][C][=C][Branch2][Branch1][P][C][=C][Branch1][C][F][C][Branch1][C][F][=C][Branch2][Ring2][#Branch1][C][=C][C][=C][Branch2][Ring1][N][C][=C][C][=C][Branch1][C][Co][C][S][C][Branch1][C][C][=C][C][=Ring1][=Branch1][C][Branch1][C][Co][=C][Ring1][N][S][Ring1][#C][S][Ring2][Ring1][Ring2][C][=N][N][Branch1][C][Co][N][=C][Ring2][Ring1][S][Ring1][=Branch1][S][Ring2][Ring2][Branch1].[C][O][C][=C][C][=C][C][=Branch1][Ring2][=C][Ring1][=Branch1][C][=Branch1][Branch2][=C][Branch1][Ring1][C][#N][C][#N][/C][=Branch2][=Branch2][#C][=C][/C][=C][C][S][C][=C][Branch1][#Branch1][C][=Ring1][Branch1][S][Ring1][Branch2][C][Branch1][O][C][=C][C][=C][Branch1][C][Mo][S][Ring1][=Branch1][Branch1][O][C][=C][C][=C][Branch1][C][Mo][S][Ring1][=Branch1][C][=C][C][=C][Branch1][Branch2][C][=C][Ring1][=Branch1][Ring2][Ring1][#Branch1][C][Branch1][O][C][=C][C][=C][Branch1][C][Mo][S][Ring1][=Branch1][Branch1][O][C][=C][C][=C][Branch1][C][Mo][S][Ring1][=Branch1][C][=C][Ring2][Ring1][Ring1][S][C][C][=C][Branch2][Ring1][=N][/C][=C][\C][=Branch1][C][=O][C][=C][C][=C][Branch1][Ring1][O][C][C][=C][Ring1][Branch2][C][Ring1][N][=C][Branch1][Ring1][C][#N][C][#N][S][C][Ring2][Ring1][#Branch2][=Ring2][Ring1][#Branch1][C][Ring2][=Branch1][=C][=O],{[$]c1ccc(-c2c(F)c(F)c(-c3ccc(-c4cc5c([Co])c6sc([$])cc6c([Co])c5s4)s3)c3nn([Co])nc23)s1}.COc1ccc2c(c1)C(=C(C#N)C#N)/C(=C/c1cc3sc4c(c3s1)C(c1ccc([Mo])s1)(c1ccc([Mo])s1)c1cc3c(cc1-4)C(c1ccc([Mo])s1)(c1ccc([Mo])s1)c1c-3sc3cc(/C=C4\C(=O)c5ccc(OC)cc5C4=C(C#N)C#N)sc13)C2=O
J52,IT-M,-5.218181818181818,-3.282,-5.513571428571429,-3.808,1.0,CB,12.0,DIO,150.0,9.4,938.43603,0.843,17.1,65.1,Cc1ccc(-c2c(F)c(F)c(-c3ccc(-c4cc5c(-c6ccc([Cr])s6)c6sc(C)cc6c(-c6ccc([Cr])s6)c5s4)s3)c3nn([Sc])nc23)s1.Cc1ccc2c(c1)C(=C(C#N)C#N)/C(=C/c1cc3sc4c(c3s1)C(c1ccc([Mo])cc1)(c1ccc([Mo])cc1)c1cc3c(cc1-4)C(c1ccc([Mo])cc1)(c1ccc([Mo])cc1)c1c-3sc3cc(/C=C4\C(=O)c5ccc(C)cc5C4=C(C#N)C#N)sc13)C2=O,[C][C][=C][C][=C][Branch2][#Branch1][Branch1][C][=C][Branch1][C][F][C][Branch1][C][F][=C][Branch2][Branch1][O][C][=C][C][=C][Branch2][Ring2][S][C][=C][C][=C][Branch1][O][C][=C][C][=C][Branch1][C][Cr][S][Ring1][=Branch1][C][S][C][Branch1][C][C][=C][C][=Ring1][=Branch1][C][Branch1][O][C][=C][C][=C][Branch1][C][Cr][S][Ring1][=Branch1][=C][Ring2][Ring1][=Branch1][S][Ring2][Ring1][=Branch2][S][Ring2][Ring1][=C][C][=N][N][Branch1][C][Sc][N][=C][Ring2][Ring2][#Branch2][Ring1][=Branch1][S][Ring2][Ring2][#C].[C][C][=C][C][=C][C][=Branch1][Ring2][=C][Ring1][=Branch1][C][=Branch1][Branch2][=C][Branch1][Ring1][C][#N][C][#N][/C][=Branch2][#Branch2][C][=C][/C][=C][C][S][C][=C][Branch1][#Branch1][C][=Ring1][Branch1][S][Ring1][Branch2][C][Branch1][N][C][=C][C][=C][Branch1][C][Mo][C][=C][Ring1][#Branch1][Branch1][N][C][=C][C][=C][Branch1][C][Mo][C][=C][Ring1][#Branch1][C][=C][C][=C][Branch1][Branch2][C][=C][Ring1][=Branch1][Ring2][Ring1][=Branch2][C][Branch1][N][C][=C][C][=C][Branch1][C][Mo][C][=C][Ring1][#Branch1][Branch1][N][C][=C][C][=C][Branch1][C][Mo][C][=C][Ring1][#Branch1][C][=C][Ring2][Ring1][Branch1][S][C][C][=C][Branch2][Ring1][N][/C][=C][\C][=Branch1][C][=O][C][=C][C][=C][Branch1][C][C][C][=C][Ring1][#Branch1][C][Ring1][O][=C][Branch1][Ring1][C][#N][C][#N][S][C][Ring2][Ring1][=Branch2][=Ring2][Ring1][=Branch1][C][Ring2][=Branch1][P][=O],{[$]c1ccc(-c2c(F)c(F)c(-c3ccc(-c4cc5c(-c6ccc([Cr])s6)c6sc([$])cc6c(-c6ccc([Cr])s6)c5s4)s3)c3nn([Sc])nc23)s1}.Cc1ccc2c(c1)C(=C(C#N)C#N)/C(=C/c1cc3sc4c(c3s1)C(c1ccc([Mo])cc1)(c1ccc([Mo])cc1)c1cc3c(cc1-4)C(c1ccc([Mo])cc1)(c1ccc([Mo])cc1)c1c-3sc3cc(/C=C4\C(=O)c5ccc(C)cc5C4=C(C#N)C#N)sc13)C2=O
J52,IEICO,-5.218181818181818,-3.282,-5.32,-3.95,1.0,CB,12.0,DIO,150.0,6.5,653.0448,0.848,15.1,51.0,Cc1ccc(-c2c(F)c(F)c(-c3ccc(-c4cc5c(-c6ccc([Cr])s6)c6sc(C)cc6c(-c6ccc([Cr])s6)c5s4)s3)c3nn([Sc])nc23)s1.N#CC(C#N)=C1/C(=C/c2cc(O[Cr])c(-c3cc4c(s3)-c3cc5c(cc3C4(c3ccc([Mo])cc3)c3ccc([Mo])cc3)-c3sc(-c4sc(/C=C6\C(=O)c7ccccc7C6=C(C#N)C#N)cc4O[Cr])cc3C5(c3ccc([Mo])cc3)c3ccc([Mo])cc3)s2)C(=O)c2ccccc21,[C][C][=C][C][=C][Branch2][#Branch1][Branch1][C][=C][Branch1][C][F][C][Branch1][C][F][=C][Branch2][Branch1][O][C][=C][C][=C][Branch2][Ring2][S][C][=C][C][=C][Branch1][O][C][=C][C][=C][Branch1][C][Cr][S][Ring1][=Branch1][C][S][C][Branch1][C][C][=C][C][=Ring1][=Branch1][C][Branch1][O][C][=C][C][=C][Branch1][C][Cr][S][Ring1][=Branch1][=C][Ring2][Ring1][=Branch1][S][Ring2][Ring1][=Branch2][S][Ring2][Ring1][=C][C][=N][N][Branch1][C][Sc][N][=C][Ring2][Ring2][#Branch2][Ring1][=Branch1][S][Ring2][Ring2][#C].[N][#C][C][Branch1][Ring1][C][#N][=C][/C][=Branch2][#Branch2][N][=C][/C][=C][C][Branch1][Ring1][O][Cr][=C][Branch2][=Branch2][N][C][=C][C][=C][Branch1][Ring2][S][Ring1][Branch1][C][=C][C][=C][Branch2][Ring1][S][C][=C][Ring1][=Branch1][C][Ring1][#Branch2][Branch1][N][C][=C][C][=C][Branch1][C][Mo][C][=C][Ring1][#Branch1][C][=C][C][=C][Branch1][C][Mo][C][=C][Ring1][#Branch1][C][S][C][Branch2][Ring2][=Branch1][C][S][C][Branch2][Ring1][=Branch2][/C][=C][\C][=Branch1][C][=O][C][=C][C][=C][C][=C][Ring1][=Branch1][C][Ring1][#Branch2][=C][Branch1][Ring1][C][#N][C][#N][=C][C][=Ring2][Ring1][Branch1][O][Cr][=C][C][=Ring2][Ring1][N][C][Ring2][Ring2][S][Branch1][N][C][=C][C][=C][Branch1][C][Mo][C][=C][Ring1][#Branch1][C][=C][C][=C][Branch1][C][Mo][C][=C][Ring1][#Branch1][S][Ring2][=Branch1][N][C][=Branch1][C][=O][C][=C][C][=C][C][=C][Ring1][=Branch1][Ring2][#Branch1][#Branch1],{[$]c1ccc(-c2c(F)c(F)c(-c3ccc(-c4cc5c(-c6ccc([Cr])s6)c6sc([$])cc6c(-c6ccc([Cr])s6)c5s4)s3)c3nn([Sc])nc23)s1}.N#CC(C#N)=C1/C(=C/c2cc(O[Cr])c(-c3cc4c(s3)-c3cc5c(cc3C4(c3ccc([Mo])cc3)c3ccc([Mo])cc3)-c3sc(-c4sc(/C=C6\C(=O)c7ccccc7C6=C(C#N)C#N)cc4O[Cr])cc3C5(c3ccc([Mo])cc3)c3ccc([Mo])cc3)s2)C(=O)c2ccccc21
J71,MeIC2,-5.353333333333333,-3.4318181818181825,-5.56,-3.97,1.0,CF,18.0,_,150.0,10.2,1037.9811,0.885,16.9,69.4,Cc1ccc(-c2c(F)c(F)c(-c3ccc(-c4cc5c(-c6ccc([V])s6)c6sc(C)cc6c(-c6ccc([V])s6)c5s4)s3)c3nn([Sc])nc23)s1.Cc1scc2c1C(=O)/C(=C\c1cc3c(s1)-c1sc4cc5c6c(sc5cc4c1C3(c1ccc([Mo])cc1)c1ccc([Mo])cc1)-c1sc(/C=C3\C(=O)c4c(csc4C)C3=C(C#N)C#N)cc1C6(c1ccc([Mo])cc1)c1ccc([Mo])cc1)C2=C(C#N)C#N,[C][C][=C][C][=C][Branch2][#Branch1][Branch1][C][=C][Branch1][C][F][C][Branch1][C][F][=C][Branch2][Branch1][O][C][=C][C][=C][Branch2][Ring2][S][C][=C][C][=C][Branch1][O][C][=C][C][=C][Branch1][C][V][S][Ring1][=Branch1][C][S][C][Branch1][C][C][=C][C][=Ring1][=Branch1][C][Branch1][O][C][=C][C][=C][Branch1][C][V][S][Ring1][=Branch1][=C][Ring2][Ring1][=Branch1][S][Ring2][Ring1][=Branch2][S][Ring2][Ring1][=C][C][=N][N][Branch1][C][Sc][N][=C][Ring2][Ring2][#Branch2][Ring1][=Branch1][S][Ring2][Ring2][#C].[C][C][S][C][=C][C][=Ring1][Branch1][C][=Branch1][C][=O][/C][=Branch2][=Branch2][N][=C][\C][=C][C][=C][Branch1][Ring2][S][Ring1][Branch1][C][S][C][=C][C][C][=C][Branch2][Ring2][#Branch1][S][C][=Ring1][Branch1][C][=C][Ring1][=Branch2][C][=Ring1][N][C][Ring1][S][Branch1][N][C][=C][C][=C][Branch1][C][Mo][C][=C][Ring1][#Branch1][C][=C][C][=C][Branch1][C][Mo][C][=C][Ring1][#Branch1][C][S][C][Branch2][Ring1][O][/C][=C][\C][=Branch1][C][=O][C][C][=Branch1][#Branch1][=C][S][C][=Ring1][Branch1][C][C][Ring1][#Branch2][=C][Branch1][Ring1][C][#N][C][#N][=C][C][=Ring2][Ring1][Branch1][C][Ring2][Ring2][N][Branch1][N][C][=C][C][=C][Branch1][C][Mo][C][=C][Ring1][#Branch1][C][=C][C][=C][Branch1][C][Mo][C][=C][Ring1][#Branch1][C][Ring2][=Branch1][O][=C][Branch1][Ring1][C][#N][C][#N],{[$]c1ccc(-c2c(F)c(F)c(-c3ccc(-c4cc5c(-c6ccc([V])s6)c6sc([$])cc6c(-c6ccc([V])s6)c5s4)s3)c3nn([Sc])nc23)s1}.Cc1scc2c1C(=O)/C(=C\c1cc3c(s1)-c1sc4cc5c6c(sc5cc4c1C3(c1ccc([Mo])cc1)c1ccc([Mo])cc1)-c1sc(/C=C3\C(=O)c4c(csc4C)C3=C(C#N)C#N)cc1C6(c1ccc([Mo])cc1)c1ccc([Mo])cc1)C2=C(C#N)C#N
J70,m-ITIC,-5.37,-2.91,-5.527142857142858,-3.8541666666666674,0.667,CF,20.0,_,150.0,11.62,1162.000296,0.92,18.09,69.82,Cc1ccc(-c2c(F)c(F)c(-c3ccc(-c4cc5c(-c6ccc([Ni])s6)c6sc(C)cc6c(-c6ccc([Ni])s6)c5s4)s3)c3nn([Sc])nc23)s1.N#CC(C#N)=C1/C(=C/c2cc3sc4c(c3s2)C(c2cccc([Mo])c2)(c2cccc([Mo])c2)c2cc3c(cc2-4)C(c2cccc([Mo])c2)(c2cccc([Mo])c2)c2c-3sc3cc(/C=C4\C(=O)c5ccccc5C4=C(C#N)C#N)sc23)C(=O)c2ccccc21,[C][C][=C][C][=C][Branch2][#Branch1][Branch1][C][=C][Branch1][C][F][C][Branch1][C][F][=C][Branch2][Branch1][O][C][=C][C][=C][Branch2][Ring2][S][C][=C][C][=C][Branch1][O][C][=C][C][=C][Branch1][C][Ni][S][Ring1][=Branch1][C][S][C][Branch1][C][C][=C][C][=Ring1][=Branch1][C][Branch1][O][C][=C][C][=C][Branch1][C][Ni][S][Ring1][=Branch1][=C][Ring2][Ring1][=Branch1][S][Ring2][Ring1][=Branch2][S][Ring2][Ring1][=C][C][=N][N][Branch1][C][Sc][N][=C][Ring2][Ring2][#Branch2][Ring1][=Branch1][S][Ring2][Ring2][#C].[N][#C][C][Branch1][Ring1][C][#N][=C][/C][=Branch2][=Branch2][#C][=C][/C][=C][C][S][C][=C][Branch1][#Branch1][C][=Ring1][Branch1][S][Ring1][Branch2][C][Branch1][N][C][=C][C][=C][C][Branch1][C][Mo][=C][Ring1][#Branch1][Branch1][N][C][=C][C][=C][C][Branch1][C][Mo][=C][Ring1][#Branch1][C][=C][C][=C][Branch1][Branch2][C][=C][Ring1][=Branch1][Ring2][Ring1][=Branch2][C][Branch1][N][C][=C][C][=C][C][Branch1][C][Mo][=C][Ring1][#Branch1][Branch1][N][C][=C][C][=C][C][Branch1][C][Mo][=C][Ring1][#Branch1][C][=C][Ring2][Ring1][Branch1][S][C][C][=C][Branch2][Ring1][=Branch2][/C][=C][\C][=Branch1][C][=O][C][=C][C][=C][C][=C][Ring1][=Branch1][C][Ring1][#Branch2][=C][Branch1][Ring1][C][#N][C][#N][S][C][Ring2][Ring1][Branch2][=Ring2][Ring1][Branch1][C][=Branch1][C][=O][C][=C][C][=C][C][=C][Ring1][=Branch1][Ring2][=Branch1][#C],{[$]c1ccc(-c2c(F)c(F)c(-c3ccc(-c4cc5c(-c6ccc([Ni])s6)c6sc([$])cc6c(-c6ccc([Ni])s6)c5s4)s3)c3nn([Sc])nc23)s1}.N#CC(C#N)=C1/C(=C/c2cc3sc4c(c3s2)C(c2cccc([Mo])c2)(c2cccc([Mo])c2)c2cc3c(cc2-4)C(c2cccc([Mo])c2)(c2cccc([Mo])c2)c2c-3sc3cc(/C=C4\C(=O)c5ccccc5C4=C(C#N)C#N)sc23)C(=O)c2ccccc21
J71,m-ITIC,-5.353333333333333,-3.4318181818181825,-5.527142857142858,-3.8541666666666674,0.667,CF,20.0,_,150.0,12.05,1205.462606,0.944,18.09,70.59,Cc1ccc(-c2c(F)c(F)c(-c3ccc(-c4cc5c(-c6ccc([V])s6)c6sc(C)cc6c(-c6ccc([V])s6)c5s4)s3)c3nn([Sc])nc23)s1.N#CC(C#N)=C1/C(=C/c2cc3sc4c(c3s2)C(c2cccc([Mo])c2)(c2cccc([Mo])c2)c2cc3c(cc2-4)C(c2cccc([Mo])c2)(c2cccc([Mo])c2)c2c-3sc3cc(/C=C4\C(=O)c5ccccc5C4=C(C#N)C#N)sc23)C(=O)c2ccccc21,[C][C][=C][C][=C][Branch2][#Branch1][Branch1][C][=C][Branch1][C][F][C][Branch1][C][F][=C][Branch2][Branch1][O][C][=C][C][=C][Branch2][Ring2][S][C][=C][C][=C][Branch1][O][C][=C][C][=C][Branch1][C][V][S][Ring1][=Branch1][C][S][C][Branch1][C][C][=C][C][=Ring1][=Branch1][C][Branch1][O][C][=C][C][=C][Branch1][C][V][S][Ring1][=Branch1][=C][Ring2][Ring1][=Branch1][S][Ring2][Ring1][=Branch2][S][Ring2][Ring1][=C][C][=N][N][Branch1][C][Sc][N][=C][Ring2][Ring2][#Branch2][Ring1][=Branch1][S][Ring2][Ring2][#C].[N][#C][C][Branch1][Ring1][C][#N][=C][/C][=Branch2][=Branch2][#C][=C][/C][=C][C][S][C][=C][Branch1][#Branch1][C][=Ring1][Branch1][S][Ring1][Branch2][C][Branch1][N][C][=C][C][=C][C][Branch1][C][Mo][=C][Ring1][#Branch1][Branch1][N][C][=C][C][=C][C][Branch1][C][Mo][=C][Ring1][#Branch1][C][=C][C][=C][Branch1][Branch2][C][=C][Ring1][=Branch1][Ring2][Ring1][=Branch2][C][Branch1][N][C][=C][C][=C][C][Branch1][C][Mo][=C][Ring1][#Branch1][Branch1][N][C][=C][C][=C][C][Branch1][C][Mo][=C][Ring1][#Branch1][C][=C][Ring2][Ring1][Branch1][S][C][C][=C][Branch2][Ring1][=Branch2][/C][=C][\C][=Branch1][C][=O][C][=C][C][=C][C][=C][Ring1][=Branch1][C][Ring1][#Branch2][=C][Branch1][Ring1][C][#N][C][#N][S][C][Ring2][Ring1][Branch2][=Ring2][Ring1][Branch1][C][=Branch1][C][=O][C][=C][C][=C][C][=C][Ring1][=Branch1][Ring2][=Branch1][#C],{[$]c1ccc(-c2c(F)c(F)c(-c3ccc(-c4cc5c(-c6ccc([V])s6)c6sc([$])cc6c(-c6ccc([V])s6)c5s4)s3)c3nn([Sc])nc23)s1}.N#CC(C#N)=C1/C(=C/c2cc3sc4c(c3s2)C(c2cccc([Mo])c2)(c2cccc([Mo])c2)c2cc3c(cc2-4)C(c2cccc([Mo])c2)(c2cccc([Mo])c2)c2c-3sc3cc(/C=C4\C(=O)c5ccccc5C4=C(C#N)C#N)sc23)C(=O)c2ccccc21
J72,m-ITIC,-5.42,-3.29,-5.527142857142858,-3.8541666666666674,0.667,CF,20.0,_,150.0,10.23,1022.837361,0.962,16.35,65.03,Cc1ccc(-c2c(F)c(F)c(-c3ccc(-c4cc5c(-c6ccc([Cu])s6)c6sc(C)cc6c(-c6ccc([Cu])s6)c5s4)s3)c3nn([Sc])nc23)s1.N#CC(C#N)=C1/C(=C/c2cc3sc4c(c3s2)C(c2cccc([Mo])c2)(c2cccc([Mo])c2)c2cc3c(cc2-4)C(c2cccc([Mo])c2)(c2cccc([Mo])c2)c2c-3sc3cc(/C=C4\C(=O)c5ccccc5C4=C(C#N)C#N)sc23)C(=O)c2ccccc21,[C][C][=C][C][=C][Branch2][#Branch1][Branch1][C][=C][Branch1][C][F][C][Branch1][C][F][=C][Branch2][Branch1][O][C][=C][C][=C][Branch2][Ring2][S][C][=C][C][=C][Branch1][O][C][=C][C][=C][Branch1][C][Cu][S][Ring1][=Branch1][C][S][C][Branch1][C][C][=C][C][=Ring1][=Branch1][C][Branch1][O][C][=C][C][=C][Branch1][C][Cu][S][Ring1][=Branch1][=C][Ring2][Ring1][=Branch1][S][Ring2][Ring1][=Branch2][S][Ring2][Ring1][=C][C][=N][N][Branch1][C][Sc][N][=C][Ring2][Ring2][#Branch2][Ring1][=Branch1][S][Ring2][Ring2][#C].[N][#C][C][Branch1][Ring1][C][#N][=C][/C][=Branch2][=Branch2][#C][=C][/C][=C][C][S][C][=C][Branch1][#Branch1][C][=Ring1][Branch1][S][Ring1][Branch2][C][Branch1][N][C][=C][C][=C][C][Branch1][C][Mo][=C][Ring1][#Branch1][Branch1][N][C][=C][C][=C][C][Branch1][C][Mo][=C][Ring1][#Branch1][C][=C][C][=C][Branch1][Branch2][C][=C][Ring1][=Branch1][Ring2][Ring1][=Branch2][C][Branch1][N][C][=C][C][=C][C][Branch1][C][Mo][=C][Ring1][#Branch1][Branch1][N][C][=C][C][=C][C][Branch1][C][Mo][=C][Ring1][#Branch1][C][=C][Ring2][Ring1][Branch1][S][C][C][=C][Branch2][Ring1][=Branch2][/C][=C][\C][=Branch1][C][=O][C][=C][C][=C][C][=C][Ring1][=Branch1][C][Ring1][#Branch2][=C][Branch1][Ring1][C][#N][C][#N][S][C][Ring2][Ring1][Branch2][=Ring2][Ring1][Branch1][C][=Branch1][C][=O][C][=C][C][=C][C][=C][Ring1][=Branch1][Ring2][=Branch1][#C],{[$]c1ccc(-c2c(F)c(F)c(-c3ccc(-c4cc5c(-c6ccc([Cu])s6)c6sc([$])cc6c(-c6ccc([Cu])s6)c5s4)s3)c3nn([Sc])nc23)s1}.N#CC(C#N)=C1/C(=C/c2cc3sc4c(c3s2)C(c2cccc([Mo])c2)(c2cccc([Mo])c2)c2cc3c(cc2-4)C(c2cccc([Mo])c2)(c2cccc([Mo])c2)c2c-3sc3cc(/C=C4\C(=O)c5ccccc5C4=C(C#N)C#N)sc23)C(=O)c2ccccc21