Donor,Acceptor,HOMO_D_eV,LUMO_D_eV,HOMO_A_eV,LUMO_A_eV,D_A_ratio_m_m,solvent,total_solids_conc_mg_mL,solvent_additive,annealing_temperature,PCE_percent,calc_PCE_percent,Voc_V,Jsc_mA_cm_pow_neg2,FF_percent,DA_SMILES,DA_SELFIES,DA_BigSMILES
PTB7-Th,IHIC,-5.21,-3.542368421052632,-5.452,-3.9900000000000007,0.667,DCB,20.0,CN,25.0,9.41,774.79416,0.744,17.1,60.9,Cc1cc2c(-c3ccc([Cr])s3)c3sc(-c4sc(C)c5c(F)c(C(=O)O[Cr])sc45)cc3c(-c3ccc([Cr])s3)c2s1.CCCCCCc1ccc(C2(c3ccc(CCCCCC)cc3)c3cc(C=C4C(=O)c5ccccc5C4=C(C#N)C#N)sc3-c3sc4c5c(sc4c32)-c2sc(C=C3C(=O)c4ccccc4C3=C(C#N)C#N)cc2C5(c2ccc(CCCCCC)cc2)c2ccc(CCCCCC)cc2)cc1,[C][C][=C][C][=C][Branch1][O][C][=C][C][=C][Branch1][C][Cr][S][Ring1][=Branch1][C][S][C][Branch2][Ring1][O][C][S][C][Branch1][C][C][=C][C][Branch1][C][F][=C][Branch1][#Branch1][C][=Branch1][C][=O][O][Cr][S][C][=Ring1][=C][Ring1][#Branch2][=C][C][=Ring2][Ring1][Ring1][C][Branch1][O][C][=C][C][=C][Branch1][C][Cr][S][Ring1][=Branch1][=C][Ring2][Ring2][Ring1][S][Ring2][Ring2][=Branch1].[C][C][C][C][C][C][C][=C][C][=C][Branch2][#Branch2][P][C][Branch1][P][C][=C][C][=C][Branch1][#Branch1][C][C][C][C][C][C][C][=C][Ring1][N][C][C][=C][Branch2][Ring1][=Branch2][C][=C][C][=Branch1][C][=O][C][=C][C][=C][C][=C][Ring1][=Branch1][C][Ring1][#Branch2][=C][Branch1][Ring1][C][#N][C][#N][S][C][=Ring2][Ring1][Branch1][C][S][C][C][=C][Branch1][O][S][C][=Ring1][Branch1][C][=Ring1][Branch2][Ring2][Ring2][#Branch2][C][S][C][Branch2][Ring1][=Branch2][C][=C][C][=Branch1][C][=O][C][=C][C][=C][C][=C][Ring1][=Branch1][C][Ring1][#Branch2][=C][Branch1][Ring1][C][#N][C][#N][=C][C][=Ring2][Ring1][Branch1][C][Ring2][Ring1][O][Branch1][P][C][=C][C][=C][Branch1][#Branch1][C][C][C][C][C][C][C][=C][Ring1][N][C][=C][C][=C][Branch1][#Branch1][C][C][C][C][C][C][C][=C][Ring1][N][C][=C][Ring2][#Branch1][=C],{[$]c1cc2c(-c3ccc([Cr])s3)c3sc(-c4sc([$])c5c(F)c(C(=O)O[Cr])sc45)cc3c(-c3ccc([Cr])s3)c2s1}.CCCCCCc1ccc(C2(c3ccc(CCCCCC)cc3)c3cc(C=C4C(=O)c5ccccc5C4=C(C#N)C#N)sc3-c3sc4c5c(sc4c32)-c2sc(C=C3C(=O)c4ccccc4C3=C(C#N)C#N)cc2C5(c2ccc(CCCCCC)cc2)c2ccc(CCCCCC)cc2)cc1
PTB7-Th,DTPC-IC,-5.21,-3.542368421052632,-5.21,-3.97,0.667,DCB,25.0,_,25.0,3.12,312.122936,0.863,8.53,42.4,Cc1cc2c(-c3ccc([Cr])s3)c3sc(-c4sc(C)c5c(F)c(C(=O)O[Cr])sc45)cc3c(-c3ccc([Cr])s3)c2s1.N#CC(C#N)=C1/C(=C/c2cc3c(s2)-c2cc4c5c6c2c(ccc6c2ccc6c7c(cc(c5c72)n4[Sc])-c2sc(/C=C4\C(=O)c5ccccc5C4=C(C#N)C#N)cc2C6(c2ccc([Mo])cc2)c2ccc([Mo])cc2)C3(c2ccc([Mo])cc2)c2ccc([Mo])cc2)C(=O)c2ccccc21,[C][C][=C][C][=C][Branch1][O][C][=C][C][=C][Branch1][C][Cr][S][Ring1][=Branch1][C][S][C][Branch2][Ring1][O][C][S][C][Branch1][C][C][=C][C][Branch1][C][F][=C][Branch1][#Branch1][C][=Branch1][C][=O][O][Cr][S][C][=Ring1][=C][Ring1][#Branch2][=C][C][=Ring2][Ring1][Ring1][C][Branch1][O][C][=C][C][=C][Branch1][C][Cr][S][Ring1][=Branch1][=C][Ring2][Ring2][Ring1][S][Ring2][Ring2][=Branch1].[N][#C][C][Branch1][Ring1][C][#N][=C][/C][=Branch2][#Branch2][P][=C][/C][=C][C][=C][Branch1][Ring2][S][Ring1][Branch1][C][=C][C][=C][C][=C][Ring1][=Branch1][C][=Branch2][#Branch1][#C][=C][C][=C][Ring1][=Branch1][C][=C][C][=C][C][=C][Branch2][Ring1][C][C][=C][Branch1][=Branch2][C][Ring1][S][=C][Ring1][=Branch1][Ring1][#Branch2][N][Ring2][Ring1][Ring1][Sc][C][S][C][Branch2][Ring1][=Branch2][/C][=C][\C][=Branch1][C][=O][C][=C][C][=C][C][=C][Ring1][=Branch1][C][Ring1][#Branch2][=C][Branch1][Ring1][C][#N][C][#N][=C][C][=Ring2][Ring1][Branch1][C][Ring2][Ring1][#C][Branch1][N][C][=C][C][=C][Branch1][C][Mo][C][=C][Ring1][#Branch1][C][=C][C][=C][Branch1][C][Mo][C][=C][Ring1][#Branch1][C][Ring2][Branch1][=C][Branch1][N][C][=C][C][=C][Branch1][C][Mo][C][=C][Ring1][#Branch1][C][=C][C][=C][Branch1][C][Mo][C][=C][Ring1][#Branch1][C][=Branch1][C][=O][C][=C][C][=C][C][=C][Ring1][=Branch1][Ring2][#Branch1][=Branch2],{[$]c1cc2c(-c3ccc([Cr])s3)c3sc(-c4sc([$])c5c(F)c(C(=O)O[Cr])sc45)cc3c(-c3ccc([Cr])s3)c2s1}.N#CC(C#N)=C1/C(=C/c2cc3c(s2)-c2cc4c5c6c2c(ccc6c2ccc6c7c(cc(c5c72)n4[Sc])-c2sc(/C=C4\C(=O)c5ccccc5C4=C(C#N)C#N)cc2C6(c2ccc([Mo])cc2)c2ccc([Mo])cc2)C3(c2ccc([Mo])cc2)c2ccc([Mo])cc2)C(=O)c2ccccc21
PTB7-Th,DTPC-DFIC,-5.21,-3.542368421052632,-5.31,-4.1,0.667,DCB,25.0,DIO,25.0,10.21,1021.20896,0.76,21.92,61.3,Cc1cc2c(-c3ccc([Cr])s3)c3sc(-c4sc(C)c5c(F)c(C(=O)O[Cr])sc45)cc3c(-c3ccc([Cr])s3)c2s1.N#CC(C#N)=C1/C(=C/c2cc3c(s2)-c2cc4c5c6c2c(ccc6c2ccc6c7c(cc(c5c72)n4[Sc])-c2sc(/C=C4\C(=O)c5cc(F)c(F)cc5C4=C(C#N)C#N)cc2C6(c2ccc([Mo])cc2)c2ccc([Mo])cc2)C3(c2ccc([Mo])cc2)c2ccc([Mo])cc2)C(=O)c2cc(F)c(F)cc21,[C][C][=C][C][=C][Branch1][O][C][=C][C][=C][Branch1][C][Cr][S][Ring1][=Branch1][C][S][C][Branch2][Ring1][O][C][S][C][Branch1][C][C][=C][C][Branch1][C][F][=C][Branch1][#Branch1][C][=Branch1][C][=O][O][Cr][S][C][=Ring1][=C][Ring1][#Branch2][=C][C][=Ring2][Ring1][Ring1][C][Branch1][O][C][=C][C][=C][Branch1][C][Cr][S][Ring1][=Branch1][=C][Ring2][Ring2][Ring1][S][Ring2][Ring2][=Branch1].[N][#C][C][Branch1][Ring1][C][#N][=C][/C][=Branch2][O][#Branch1][=C][/C][=C][C][=C][Branch1][Ring2][S][Ring1][Branch1][C][=C][C][=C][C][=C][Ring1][=Branch1][C][=Branch2][Branch2][Branch1][=C][C][=C][Ring1][=Branch1][C][=C][C][=C][C][=C][Branch2][Ring1][C][C][=C][Branch1][=Branch2][C][Ring1][S][=C][Ring1][=Branch1][Ring1][#Branch2][N][Ring2][Ring1][Ring1][Sc][C][S][C][Branch2][Ring1][#C][/C][=C][\C][=Branch1][C][=O][C][=C][C][Branch1][C][F][=C][Branch1][C][F][C][=C][Ring1][Branch2][C][Ring1][N][=C][Branch1][Ring1][C][#N][C][#N][=C][C][=Ring2][Ring1][#Branch1][C][Ring2][Ring1][P][Branch1][N][C][=C][C][=C][Branch1][C][Mo][C][=C][Ring1][#Branch1][C][=C][C][=C][Branch1][C][Mo][C][=C][Ring1][#Branch1][C][Ring2][Branch1][S][Branch1][N][C][=C][C][=C][Branch1][C][Mo][C][=C][Ring1][#Branch1][C][=C][C][=C][Branch1][C][Mo][C][=C][Ring1][#Branch1][C][=Branch1][C][=O][C][=C][C][Branch1][C][F][=C][Branch1][C][F][C][=C][Ring1][Branch2][Ring2][#Branch1][=N],{[$]c1cc2c(-c3ccc([Cr])s3)c3sc(-c4sc([$])c5c(F)c(C(=O)O[Cr])sc45)cc3c(-c3ccc([Cr])s3)c2s1}.N#CC(C#N)=C1/C(=C/c2cc3c(s2)-c2cc4c5c6c2c(ccc6c2ccc6c7c(cc(c5c72)n4[Sc])-c2sc(/C=C4\C(=O)c5cc(F)c(F)cc5C4=C(C#N)C#N)cc2C6(c2ccc([Mo])cc2)c2ccc([Mo])cc2)C3(c2ccc([Mo])cc2)c2ccc([Mo])cc2)C(=O)c2cc(F)c(F)cc21
PBDB-T,DICTF,-5.297777777777778,-3.4170000000000003,-5.67,-3.79,0.833,CB,22.0,DIO,25.0,5.93,565.161,0.93,10.3,59.0,Cc1ccc(-c2sc(-c3ccc(-c4cc5c(-c6ccc([Cr])s6)c6sc(C)cc6c(-c6ccc([Cr])s6)c5s4)s3)c3c2C(=O)c2c([Cr])sc([Cr])c2C3=O)s1.N#CC(C#N)=C1/C(=C/c2ccc(-c3ccc4c(c3)C([Ti])([Ti])c3cc(-c5ccc(/C=C6\C(=O)c7ccccc7C6=C(C#N)C#N)s5)ccc3-4)s2)C(=O)c2ccccc21,[C][C][=C][C][=C][Branch2][#Branch1][O][C][S][C][Branch2][Branch1][O][C][=C][C][=C][Branch2][Ring2][S][C][=C][C][=C][Branch1][O][C][=C][C][=C][Branch1][C][Cr][S][Ring1][=Branch1][C][S][C][Branch1][C][C][=C][C][=Ring1][=Branch1][C][Branch1][O][C][=C][C][=C][Branch1][C][Cr][S][Ring1][=Branch1][=C][Ring2][Ring1][=Branch1][S][Ring2][Ring1][=Branch2][S][Ring2][Ring1][=C][=C][C][=Ring2][Ring2][Ring1][C][=Branch1][C][=O][C][=C][Branch1][C][Cr][S][C][Branch1][C][Cr][=C][Ring1][#Branch1][C][Ring1][N][=O][S][Ring2][Branch1][Ring1].[N][#C][C][Branch1][Ring1][C][#N][=C][/C][=Branch2][=Branch1][S][=C][/C][=C][C][=C][Branch2][=Branch1][Ring2][C][=C][C][=C][C][=Branch1][Ring2][=C][Ring1][=Branch1][C][Branch1][C][Ti][Branch1][C][Ti][C][=C][C][Branch2][Ring2][Ring2][C][=C][C][=C][Branch2][Ring1][=Branch2][/C][=C][\C][=Branch1][C][=O][C][=C][C][=C][C][=C][Ring1][=Branch1][C][Ring1][#Branch2][=C][Branch1][Ring1][C][#N][C][#N][S][Ring2][Ring1][Branch1][=C][C][=C][Ring2][Ring1][O][Ring2][Ring1][P][S][Ring2][Ring2][=Branch2][C][=Branch1][C][=O][C][=C][C][=C][C][=C][Ring1][=Branch1][Ring2][Branch1][Ring2],{[$]c1ccc(-c2sc(-c3ccc(-c4cc5c(-c6ccc([Cr])s6)c6sc([$])cc6c(-c6ccc([Cr])s6)c5s4)s3)c3c2C(=O)c2c([Cr])sc([Cr])c2C3=O)s1}.N#CC(C#N)=C1/C(=C/c2ccc(-c3ccc4c(c3)C([Ti])([Ti])c3cc(-c5ccc(/C=C6\C(=O)c7ccccc7C6=C(C#N)C#N)s5)ccc3-4)s2)C(=O)c2ccccc21
PBDB-T,FDICTF,-5.297777777777778,-3.4170000000000003,-5.43,-3.71,0.833,CB,22.0,DIO,25.0,10.06,980.8524,0.94,15.81,66.0,Cc1ccc(-c2sc(-c3ccc(-c4cc5c(-c6ccc([Cr])s6)c6sc(C)cc6c(-c6ccc([Cr])s6)c5s4)s3)c3c2C(=O)c2c([Cr])sc([Cr])c2C3=O)s1.N#CC(C#N)=C1/C(=C/c2cc3c(s2)-c2cc4c(cc2C3([Ti])[Ti])-c2cc3c(cc2C4([Ti])[Ti])-c2sc(/C=C4\C(=O)c5ccccc5C4=C(C#N)C#N)cc2C3([Ti])[Ti])C(=O)c2ccccc21,[C][C][=C][C][=C][Branch2][#Branch1][O][C][S][C][Branch2][Branch1][O][C][=C][C][=C][Branch2][Ring2][S][C][=C][C][=C][Branch1][O][C][=C][C][=C][Branch1][C][Cr][S][Ring1][=Branch1][C][S][C][Branch1][C][C][=C][C][=Ring1][=Branch1][C][Branch1][O][C][=C][C][=C][Branch1][C][Cr][S][Ring1][=Branch1][=C][Ring2][Ring1][=Branch1][S][Ring2][Ring1][=Branch2][S][Ring2][Ring1][=C][=C][C][=Ring2][Ring2][Ring1][C][=Branch1][C][=O][C][=C][Branch1][C][Cr][S][C][Branch1][C][Cr][=C][Ring1][#Branch1][C][Ring1][N][=O][S][Ring2][Branch1][Ring1].[N][#C][C][Branch1][Ring1][C][#N][=C][/C][=Branch2][#Branch1][Branch2][=C][/C][=C][C][=C][Branch1][Ring2][S][Ring1][Branch1][C][=C][C][=C][Branch1][N][C][=C][Ring1][=Branch1][C][Ring1][#Branch2][Branch1][C][Ti][Ti][C][=C][C][=C][Branch1][N][C][=C][Ring1][=Branch1][C][Ring1][=C][Branch1][C][Ti][Ti][C][S][C][Branch2][Ring1][=Branch2][/C][=C][\C][=Branch1][C][=O][C][=C][C][=C][C][=C][Ring1][=Branch1][C][Ring1][#Branch2][=C][Branch1][Ring1][C][#N][C][#N][=C][C][=Ring2][Ring1][Branch1][C][Ring2][Ring1][=N][Branch1][C][Ti][Ti][C][=Branch1][C][=O][C][=C][C][=C][C][=C][Ring1][=Branch1][Ring2][Branch1][#Branch2],{[$]c1ccc(-c2sc(-c3ccc(-c4cc5c(-c6ccc([Cr])s6)c6sc([$])cc6c(-c6ccc([Cr])s6)c5s4)s3)c3c2C(=O)c2c([Cr])sc([Cr])c2C3=O)s1}.N#CC(C#N)=C1/C(=C/c2cc3c(s2)-c2cc4c(cc2C3([Ti])[Ti])-c2cc3c(cc2C4([Ti])[Ti])-c2sc(/C=C4\C(=O)c5ccccc5C4=C(C#N)C#N)cc2C3([Ti])[Ti])C(=O)c2ccccc21
P3HT,MPU1,-5.057777777777777,-2.989444444444445,-5.81,-3.99,1.0,CF,16.0,DIO,40.0,1.14,113.4336,0.64,4.22,42.0,CCCCCCc1cc(-c2sc(-c3sc(-c4sc(C)cc4CCCCCC)cc3CCCCCC)cc2CCCCCC)sc1C.CCN1C(=O)/C(=C/c2ccc(C3C4C(=O)N([Cr])C(c5ccc(/C=C6\SC(=S)N(CC)C6=O)s5)C4C(=O)N3[Cr])s2)SC1=S,[C][C][C][C][C][C][C][C][=C][Branch2][Ring2][P][C][S][C][Branch2][Ring1][S][C][S][C][Branch1][P][C][S][C][Branch1][C][C][=C][C][=Ring1][=Branch1][C][C][C][C][C][C][=C][C][=Ring1][P][C][C][C][C][C][C][=C][C][=Ring2][Ring1][N][C][C][C][C][C][C][S][C][=Ring2][Ring2][#Branch1][C].[C][C][N][C][=Branch1][C][=O][/C][=Branch2][Branch1][P][=C][/C][=C][C][=C][Branch2][Branch1][Branch1][C][C][C][=Branch1][C][=O][N][Branch1][C][Cr][C][Branch2][Ring1][#Branch2][C][=C][C][=C][Branch1][P][/C][=C][\S][C][=Branch1][C][=S][N][Branch1][Ring1][C][C][C][Ring1][Branch2][=O][S][Ring1][#C][C][Ring2][Ring1][=Branch1][C][=Branch1][C][=O][N][Ring2][Ring1][#Branch2][Cr][S][Ring2][Ring1][S][S][C][Ring2][Ring2][#Branch1][=S],{CCCCCCc1cc(-c2sc(-c3sc(-c4sc([$])cc4CCCCCC)cc3CCCCCC)cc2CCCCCC)sc1[$]}.CCN1C(=O)/C(=C/c2ccc(C3C4C(=O)N([Cr])C(c5ccc(/C=C6\SC(=S)N(CC)C6=O)s5)C4C(=O)N3[Cr])s2)SC1=S
P_dFBT-DTS,MPU1,-5.31,-3.33,-5.81,-3.99,1.0,CF,16.0,DIO,40.0,4.17,417.3312,1.04,8.36,48.0,CCCCCCCC[Si]1(CCCCCCCC)c2cc(-c3cc(F)c(C)c4nn(CCCCCC)nc34)sc2-c2sc(-c3cc(F)c(-c4cc5c(s4)-c4sc(C)cc4[Si]5(CCCCCCCC)CCCCCCCC)c4nn(CCCCCC)nc34)cc21.CCN1C(=O)/C(=C/c2ccc(C3C4C(=O)N([Cr])C(c5ccc(/C=C6\SC(=S)N(CC)C6=O)s5)C4C(=O)N3[Cr])s2)SC1=S,[C][C][C][C][C][C][C][C][Si][Branch1][=Branch2][C][C][C][C][C][C][C][C][C][C][=C][Branch2][Ring1][N][C][=C][C][Branch1][C][F][=C][Branch1][C][C][C][=N][N][Branch1][#Branch1][C][C][C][C][C][C][N][=C][Ring1][P][Ring1][O][S][C][=Ring2][Ring1][=Branch1][C][S][C][Branch2][=Branch1][Branch1][C][=C][C][Branch1][C][F][=C][Branch2][Ring2][=Branch2][C][=C][C][=C][Branch1][Ring2][S][Ring1][Branch1][C][S][C][Branch1][C][C][=C][C][=Ring1][=Branch1][Si][Ring1][#Branch2][Branch1][=Branch2][C][C][C][C][C][C][C][C][C][C][C][C][C][C][C][C][C][=N][N][Branch1][#Branch1][C][C][C][C][C][C][N][=C][Ring2][Ring2][N][Ring1][O][=C][C][=Ring2][Ring2][P][Ring2][=Branch1][S].[C][C][N][C][=Branch1][C][=O][/C][=Branch2][Branch1][P][=C][/C][=C][C][=C][Branch2][Branch1][Branch1][C][C][C][=Branch1][C][=O][N][Branch1][C][Cr][C][Branch2][Ring1][#Branch2][C][=C][C][=C][Branch1][P][/C][=C][\S][C][=Branch1][C][=S][N][Branch1][Ring1][C][C][C][Ring1][Branch2][=O][S][Ring1][#C][C][Ring2][Ring1][=Branch1][C][=Branch1][C][=O][N][Ring2][Ring1][#Branch2][Cr][S][Ring2][Ring1][S][S][C][Ring2][Ring2][#Branch1][=S],{CCCCCCCC[Si]1(CCCCCCCC)c2cc(-c3cc(F)c([$])c4nn(CCCCCC)nc34)sc2-c2sc(-c3cc(F)c(-c4cc5c(s4)-c4sc([$])cc4[Si]5(CCCCCCCC)CCCCCCCC)c4nn(CCCCCC)nc34)cc21}.CCN1C(=O)/C(=C/c2ccc(C3C4C(=O)N([Cr])C(c5ccc(/C=C6\SC(=S)N(CC)C6=O)s5)C4C(=O)N3[Cr])s2)SC1=S
PBDB-T,IDT-BC6,-5.297777777777778,-3.4170000000000003,-5.55,-3.83,1.0,o-DCB,8.0,_,25.0,2.3,227.9024,0.92,5.63,44.0,Cc1ccc(-c2sc(-c3ccc(-c4cc5c(-c6ccc([Cr])s6)c6sc(C)cc6c(-c6ccc([Cr])s6)c5s4)s3)c3c2C(=O)c2c([Cr])sc([Cr])c2C3=O)s1.CCCCCCc1ccc(C2(c3ccc(CCCCCC)cc3)c3cc4c(cc3-c3sc(-c5cc(CCCCCC)c(C=C6C(=O)c7ccccc7C6=C(C#N)C#N)cc5CCCCCC)cc32)C(c2ccc(CCCCCC)cc2)(c2ccc(CCCCCC)cc2)c2cc(-c3cc(CCCCCC)c(C=C5C(=O)c6ccccc6C5=C(C#N)C#N)cc3CCCCCC)sc2-4)cc1,[C][C][=C][C][=C][Branch2][#Branch1][O][C][S][C][Branch2][Branch1][O][C][=C][C][=C][Branch2][Ring2][S][C][=C][C][=C][Branch1][O][C][=C][C][=C][Branch1][C][Cr][S][Ring1][=Branch1][C][S][C][Branch1][C][C][=C][C][=Ring1][=Branch1][C][Branch1][O][C][=C][C][=C][Branch1][C][Cr][S][Ring1][=Branch1][=C][Ring2][Ring1][=Branch1][S][Ring2][Ring1][=Branch2][S][Ring2][Ring1][=C][=C][C][=Ring2][Ring2][Ring1][C][=Branch1][C][=O][C][=C][Branch1][C][Cr][S][C][Branch1][C][Cr][=C][Ring1][#Branch1][C][Ring1][N][=O][S][Ring2][Branch1][Ring1].[C][C][C][C][C][C][C][=C][C][=C][Branch2][=C][Ring2][C][Branch1][P][C][=C][C][=C][Branch1][#Branch1][C][C][C][C][C][C][C][=C][Ring1][N][C][=C][C][=C][Branch2][=Branch1][Branch1][C][=C][Ring1][=Branch1][C][S][C][Branch2][Branch1][Ring1][C][=C][C][Branch1][#Branch1][C][C][C][C][C][C][=C][Branch2][Ring1][=Branch2][C][=C][C][=Branch1][C][=O][C][=C][C][=C][C][=C][Ring1][=Branch1][C][Ring1][#Branch2][=C][Branch1][Ring1][C][#N][C][#N][C][=C][Ring2][Ring1][N][C][C][C][C][C][C][=C][C][=Ring2][Ring2][#Branch1][Ring2][Branch1][#Branch2][C][Branch1][P][C][=C][C][=C][Branch1][#Branch1][C][C][C][C][C][C][C][=C][Ring1][N][Branch1][P][C][=C][C][=C][Branch1][#Branch1][C][C][C][C][C][C][C][=C][Ring1][N][C][C][=C][Branch2][Branch1][Ring1][C][=C][C][Branch1][#Branch1][C][C][C][C][C][C][=C][Branch2][Ring1][=Branch2][C][=C][C][=Branch1][C][=O][C][=C][C][=C][C][=C][Ring1][=Branch1][C][Ring1][#Branch2][=C][Branch1][Ring1][C][#N][C][#N][C][=C][Ring2][Ring1][N][C][C][C][C][C][C][S][C][=Ring2][Ring2][#Branch1][Ring2][Branch2][O][C][=C][Ring2][=Branch2][S],{[$]c1ccc(-c2sc(-c3ccc(-c4cc5c(-c6ccc([Cr])s6)c6sc([$])cc6c(-c6ccc([Cr])s6)c5s4)s3)c3c2C(=O)c2c([Cr])sc([Cr])c2C3=O)s1}.CCCCCCc1ccc(C2(c3ccc(CCCCCC)cc3)c3cc4c(cc3-c3sc(-c5cc(CCCCCC)c(C=C6C(=O)c7ccccc7C6=C(C#N)C#N)cc5CCCCCC)cc32)C(c2ccc(CCCCCC)cc2)(c2ccc(CCCCCC)cc2)c2cc(-c3cc(CCCCCC)c(C=C5C(=O)c6ccccc6C5=C(C#N)C#N)cc3CCCCCC)sc2-4)cc1
PBDB-T,IDT-BOC6,-5.297777777777778,-3.4170000000000003,-5.51,-3.78,1.0,o-DCB,8.0,DIO,25.0,9.6,955.5408,1.01,17.52,54.0,Cc1ccc(-c2sc(-c3ccc(-c4cc5c(-c6ccc([Cr])s6)c6sc(C)cc6c(-c6ccc([Cr])s6)c5s4)s3)c3c2C(=O)c2c([Cr])sc([Cr])c2C3=O)s1.CCCCCCOc1cc(-c2cc3c(s2)-c2cc4c(cc2C3(c2ccc(CCCCCC)cc2)c2ccc(CCCCCC)cc2)-c2sc(-c3cc(OCCCCCC)c(C=C5C(=O)c6ccccc6C5=C(C#N)C#N)cc3OCCCCCC)cc2C4(c2ccc(CCCCCC)cc2)c2ccc(CCCCCC)cc2)c(OCCCCCC)cc1C=C1C(=O)c2ccccc2C1=C(C#N)C#N,[C][C][=C][C][=C][Branch2][#Branch1][O][C][S][C][Branch2][Branch1][O][C][=C][C][=C][Branch2][Ring2][S][C][=C][C][=C][Branch1][O][C][=C][C][=C][Branch1][C][Cr][S][Ring1][=Branch1][C][S][C][Branch1][C][C][=C][C][=Ring1][=Branch1][C][Branch1][O][C][=C][C][=C][Branch1][C][Cr][S][Ring1][=Branch1][=C][Ring2][Ring1][=Branch1][S][Ring2][Ring1][=Branch2][S][Ring2][Ring1][=C][=C][C][=Ring2][Ring2][Ring1][C][=Branch1][C][=O][C][=C][Branch1][C][Cr][S][C][Branch1][C][Cr][=C][Ring1][#Branch1][C][Ring1][N][=O][S][Ring2][Branch1][Ring1].[C][C][C][C][C][C][O][C][=C][C][Branch2][O][#C][C][=C][C][=C][Branch1][Ring2][S][Ring1][Branch1][C][=C][C][=C][Branch2][Ring2][#Branch2][C][=C][Ring1][=Branch1][C][Ring1][#Branch2][Branch1][P][C][=C][C][=C][Branch1][#Branch1][C][C][C][C][C][C][C][=C][Ring1][N][C][=C][C][=C][Branch1][#Branch1][C][C][C][C][C][C][C][=C][Ring1][N][C][S][C][Branch2][Branch1][Branch1][C][=C][C][Branch1][Branch2][O][C][C][C][C][C][C][=C][Branch2][Ring1][=Branch2][C][=C][C][=Branch1][C][=O][C][=C][C][=C][C][=C][Ring1][=Branch1][C][Ring1][#Branch2][=C][Branch1][Ring1][C][#N][C][#N][C][=C][Ring2][Ring1][=N][O][C][C][C][C][C][C][=C][C][=Ring2][Ring2][=Branch2][C][Ring2][=Branch1][#Branch1][Branch1][P][C][=C][C][=C][Branch1][#Branch1][C][C][C][C][C][C][C][=C][Ring1][N][C][=C][C][=C][Branch1][#Branch1][C][C][C][C][C][C][C][=C][Ring1][N][=C][Branch1][Branch2][O][C][C][C][C][C][C][C][=C][Ring2][=Branch2][Ring1][C][=C][C][=Branch1][C][=O][C][=C][C][=C][C][=C][Ring1][=Branch1][C][Ring1][#Branch2][=C][Branch1][Ring1][C][#N][C][#N],{[$]c1ccc(-c2sc(-c3ccc(-c4cc5c(-c6ccc([Cr])s6)c6sc([$])cc6c(-c6ccc([Cr])s6)c5s4)s3)c3c2C(=O)c2c([Cr])sc([Cr])c2C3=O)s1}.CCCCCCOc1cc(-c2cc3c(s2)-c2cc4c(cc2C3(c2ccc(CCCCCC)cc2)c2ccc(CCCCCC)cc2)-c2sc(-c3cc(OCCCCCC)c(C=C5C(=O)c6ccccc6C5=C(C#N)C#N)cc3OCCCCCC)cc2C4(c2ccc(CCCCCC)cc2)c2ccc(CCCCCC)cc2)c(OCCCCCC)cc1C=C1C(=O)c2ccccc2C1=C(C#N)C#N
PTB7-Th,ITIC3,-5.21,-3.542368421052632,-5.619999999999998,-4.018571428571428,0.667,CF,10.0,_,25.0,8.09,808.84104,0.763,16.8,63.1,Cc1cc2c(-c3ccc([Cr])s3)c3sc(-c4sc(C)c5c(F)c(C(=O)O[Cr])sc45)cc3c(-c3ccc([Cr])s3)c2s1.CCCCCCc1ccc(C2(c3ccc(CCCCCC)cc3)c3cc4c(cc3-c3sc5cc(C=C6C(=O)c7cc(F)ccc7C6=C(C#N)C#N)sc5c32)C(c2ccc(CCCCCC)cc2)(c2ccc(CCCCCC)cc2)c2c-4sc3cc(C=C4C(=O)c5cc(F)ccc5C4=C(C#N)C#N)sc23)cc1,[C][C][=C][C][=C][Branch1][O][C][=C][C][=C][Branch1][C][Cr][S][Ring1][=Branch1][C][S][C][Branch2][Ring1][O][C][S][C][Branch1][C][C][=C][C][Branch1][C][F][=C][Branch1][#Branch1][C][=Branch1][C][=O][O][Cr][S][C][=Ring1][=C][Ring1][#Branch2][=C][C][=Ring2][Ring1][Ring1][C][Branch1][O][C][=C][C][=C][Branch1][C][Cr][S][Ring1][=Branch1][=C][Ring2][Ring2][Ring1][S][Ring2][Ring2][=Branch1].[C][C][C][C][C][C][C][=C][C][=C][Branch2][N][C][C][Branch1][P][C][=C][C][=C][Branch1][#Branch1][C][C][C][C][C][C][C][=C][Ring1][N][C][=C][C][=C][Branch2][Branch1][Ring2][C][=C][Ring1][=Branch1][C][S][C][C][=C][Branch2][Ring1][N][C][=C][C][=Branch1][C][=O][C][=C][C][Branch1][C][F][=C][C][=C][Ring1][#Branch1][C][Ring1][O][=C][Branch1][Ring1][C][#N][C][#N][S][C][=Ring2][Ring1][=Branch1][C][=Ring2][Ring1][=Branch2][Ring2][Ring2][N][C][Branch1][P][C][=C][C][=C][Branch1][#Branch1][C][C][C][C][C][C][C][=C][Ring1][N][Branch1][P][C][=C][C][=C][Branch1][#Branch1][C][C][C][C][C][C][C][=C][Ring1][N][C][=C][Ring2][Branch1][Branch2][S][C][C][=C][Branch2][Ring1][N][C][=C][C][=Branch1][C][=O][C][=C][C][Branch1][C][F][=C][C][=C][Ring1][#Branch1][C][Ring1][O][=C][Branch1][Ring1][C][#N][C][#N][S][C][Ring2][Ring1][=Branch2][=Ring2][Ring1][=Branch1][C][=C][Ring2][Branch2][Ring2],{[$]c1cc2c(-c3ccc([Cr])s3)c3sc(-c4sc([$])c5c(F)c(C(=O)O[Cr])sc45)cc3c(-c3ccc([Cr])s3)c2s1}.CCCCCCc1ccc(C2(c3ccc(CCCCCC)cc3)c3cc4c(cc3-c3sc5cc(C=C6C(=O)c7cc(F)ccc7C6=C(C#N)C#N)sc5c32)C(c2ccc(CCCCCC)cc2)(c2ccc(CCCCCC)cc2)c2c-4sc3cc(C=C4C(=O)c5cc(F)ccc5C4=C(C#N)C#N)sc23)cc1