Donor,Acceptor,HOMO_D_eV,LUMO_D_eV,HOMO_A_eV,LUMO_A_eV,D_A_ratio_m_m,solvent,total_solids_conc_mg_mL,solvent_additive,annealing_temperature,PCE_percent,calc_PCE_percent,Voc_V,Jsc_mA_cm_pow_neg2,FF_percent,DA_SMILES,DA_SELFIES,DA_BigSMILES
J52,ITIC,-5.218181818181818,-3.282,-5.574285714285715,-3.9143137254901954,0.667,CF,18.0,_,25.0,3.78,377.075952,0.803,10.87,43.2,Cc1ccc(-c2c(F)c(F)c(-c3ccc(-c4cc5c(-c6ccc([Cr])s6)c6sc(C)cc6c(-c6ccc([Cr])s6)c5s4)s3)c3nn([Sc])nc23)s1.N#CC(C#N)=C1/C(=C/c2cc3sc4c(c3s2)C(c2ccc([Mo])cc2)(c2ccc([Mo])cc2)c2cc3c(cc2-4)C(c2ccc([Mo])cc2)(c2ccc([Mo])cc2)c2c-3sc3cc(/C=C4\C(=O)c5ccccc5C4=C(C#N)C#N)sc23)C(=O)c2ccccc21,[C][C][=C][C][=C][Branch2][#Branch1][Branch1][C][=C][Branch1][C][F][C][Branch1][C][F][=C][Branch2][Branch1][O][C][=C][C][=C][Branch2][Ring2][S][C][=C][C][=C][Branch1][O][C][=C][C][=C][Branch1][C][Cr][S][Ring1][=Branch1][C][S][C][Branch1][C][C][=C][C][=Ring1][=Branch1][C][Branch1][O][C][=C][C][=C][Branch1][C][Cr][S][Ring1][=Branch1][=C][Ring2][Ring1][=Branch1][S][Ring2][Ring1][=Branch2][S][Ring2][Ring1][=C][C][=N][N][Branch1][C][Sc][N][=C][Ring2][Ring2][#Branch2][Ring1][=Branch1][S][Ring2][Ring2][#C].[N][#C][C][Branch1][Ring1][C][#N][=C][/C][=Branch2][=Branch2][#C][=C][/C][=C][C][S][C][=C][Branch1][#Branch1][C][=Ring1][Branch1][S][Ring1][Branch2][C][Branch1][N][C][=C][C][=C][Branch1][C][Mo][C][=C][Ring1][#Branch1][Branch1][N][C][=C][C][=C][Branch1][C][Mo][C][=C][Ring1][#Branch1][C][=C][C][=C][Branch1][Branch2][C][=C][Ring1][=Branch1][Ring2][Ring1][=Branch2][C][Branch1][N][C][=C][C][=C][Branch1][C][Mo][C][=C][Ring1][#Branch1][Branch1][N][C][=C][C][=C][Branch1][C][Mo][C][=C][Ring1][#Branch1][C][=C][Ring2][Ring1][Branch1][S][C][C][=C][Branch2][Ring1][=Branch2][/C][=C][\C][=Branch1][C][=O][C][=C][C][=C][C][=C][Ring1][=Branch1][C][Ring1][#Branch2][=C][Branch1][Ring1][C][#N][C][#N][S][C][Ring2][Ring1][Branch2][=Ring2][Ring1][Branch1][C][=Branch1][C][=O][C][=C][C][=C][C][=C][Ring1][=Branch1][Ring2][=Branch1][#C],{[$]c1ccc(-c2c(F)c(F)c(-c3ccc(-c4cc5c(-c6ccc([Cr])s6)c6sc([$])cc6c(-c6ccc([Cr])s6)c5s4)s3)c3nn([Sc])nc23)s1}.N#CC(C#N)=C1/C(=C/c2cc3sc4c(c3s2)C(c2ccc([Mo])cc2)(c2ccc([Mo])cc2)c2cc3c(cc2-4)C(c2ccc([Mo])cc2)(c2ccc([Mo])cc2)c2c-3sc3cc(/C=C4\C(=O)c5ccccc5C4=C(C#N)C#N)sc23)C(=O)c2ccccc21
J52-Cl,ITIC,-5.46,-4.395,-5.574285714285715,-3.9143137254901954,0.667,CF,18.0,_,25.0,11.53,1152.299304,0.956,17.17,70.2,Cc1ccc(-c2c(F)c(F)c(-c3ccc(-c4cc5c(-c6cc(Cl)c([Cr])s6)c6sc(C)cc6c(-c6cc(Cl)c([Cr])s6)c5s4)s3)c3nn([Sc])nc23)s1.N#CC(C#N)=C1/C(=C/c2cc3sc4c(c3s2)C(c2ccc([Mo])cc2)(c2ccc([Mo])cc2)c2cc3c(cc2-4)C(c2ccc([Mo])cc2)(c2ccc([Mo])cc2)c2c-3sc3cc(/C=C4\C(=O)c5ccccc5C4=C(C#N)C#N)sc23)C(=O)c2ccccc21,[C][C][=C][C][=C][Branch2][#Branch1][O][C][=C][Branch1][C][F][C][Branch1][C][F][=C][Branch2][Branch1][P][C][=C][C][=C][Branch2][Branch1][=Branch1][C][=C][C][=C][Branch1][=C][C][=C][C][Branch1][C][Cl][=C][Branch1][C][Cr][S][Ring1][#Branch1][C][S][C][Branch1][C][C][=C][C][=Ring1][=Branch1][C][Branch1][=C][C][=C][C][Branch1][C][Cl][=C][Branch1][C][Cr][S][Ring1][#Branch1][=C][Ring2][Ring1][Branch2][S][Ring2][Ring1][O][S][Ring2][Ring1][S][C][=N][N][Branch1][C][Sc][N][=C][Ring2][Ring2][N][Ring1][=Branch1][S][Ring2][Ring2][P].[N][#C][C][Branch1][Ring1][C][#N][=C][/C][=Branch2][=Branch2][#C][=C][/C][=C][C][S][C][=C][Branch1][#Branch1][C][=Ring1][Branch1][S][Ring1][Branch2][C][Branch1][N][C][=C][C][=C][Branch1][C][Mo][C][=C][Ring1][#Branch1][Branch1][N][C][=C][C][=C][Branch1][C][Mo][C][=C][Ring1][#Branch1][C][=C][C][=C][Branch1][Branch2][C][=C][Ring1][=Branch1][Ring2][Ring1][=Branch2][C][Branch1][N][C][=C][C][=C][Branch1][C][Mo][C][=C][Ring1][#Branch1][Branch1][N][C][=C][C][=C][Branch1][C][Mo][C][=C][Ring1][#Branch1][C][=C][Ring2][Ring1][Branch1][S][C][C][=C][Branch2][Ring1][=Branch2][/C][=C][\C][=Branch1][C][=O][C][=C][C][=C][C][=C][Ring1][=Branch1][C][Ring1][#Branch2][=C][Branch1][Ring1][C][#N][C][#N][S][C][Ring2][Ring1][Branch2][=Ring2][Ring1][Branch1][C][=Branch1][C][=O][C][=C][C][=C][C][=C][Ring1][=Branch1][Ring2][=Branch1][#C],{[$]c1ccc(-c2c(F)c(F)c(-c3ccc(-c4cc5c(-c6cc(Cl)c([Cr])s6)c6sc([$])cc6c(-c6cc(Cl)c([Cr])s6)c5s4)s3)c3nn([Sc])nc23)s1}.N#CC(C#N)=C1/C(=C/c2cc3sc4c(c3s2)C(c2ccc([Mo])cc2)(c2ccc([Mo])cc2)c2cc3c(cc2-4)C(c2ccc([Mo])cc2)(c2ccc([Mo])cc2)c2c-3sc3cc(/C=C4\C(=O)c5ccccc5C4=C(C#N)C#N)sc23)C(=O)c2ccccc21
PBDB-T,IDTT2F,-5.297777777777778,-3.4170000000000003,-5.57,-4.03,1.0,DCB,8.0,_,25.0,8.85,884.5929,0.81,18.51,59.0,Cc1ccc(-c2sc(-c3ccc(-c4cc5c(-c6ccc([Cr])s6)c6sc(C)cc6c(-c6ccc([Cr])s6)c5s4)s3)c3c2C(=O)c2c([Cr])sc([Cr])c2C3=O)s1.N#CC(C#N)=C1/C(=C/c2ccc(-c3cc4c(s3)-c3cc5c(cc3C4(c3ccc([Mo])cc3)c3ccc([Mo])cc3)-c3sc(-c4ccc(/C=C6\C(=O)c7cc(F)c(F)cc7C6=C(C#N)C#N)s4)cc3C5(c3ccc([Mo])cc3)c3ccc([Mo])cc3)s2)C(=O)c2cc(F)c(F)cc21,[C][C][=C][C][=C][Branch2][#Branch1][O][C][S][C][Branch2][Branch1][O][C][=C][C][=C][Branch2][Ring2][S][C][=C][C][=C][Branch1][O][C][=C][C][=C][Branch1][C][Cr][S][Ring1][=Branch1][C][S][C][Branch1][C][C][=C][C][=Ring1][=Branch1][C][Branch1][O][C][=C][C][=C][Branch1][C][Cr][S][Ring1][=Branch1][=C][Ring2][Ring1][=Branch1][S][Ring2][Ring1][=Branch2][S][Ring2][Ring1][=C][=C][C][=Ring2][Ring2][Ring1][C][=Branch1][C][=O][C][=C][Branch1][C][Cr][S][C][Branch1][C][Cr][=C][Ring1][#Branch1][C][Ring1][N][=O][S][Ring2][Branch1][Ring1].[N][#C][C][Branch1][Ring1][C][#N][=C][/C][=Branch2][#Branch2][N][=C][/C][=C][C][=C][Branch2][=Branch2][S][C][=C][C][=C][Branch1][Ring2][S][Ring1][Branch1][C][=C][C][=C][Branch2][Ring1][S][C][=C][Ring1][=Branch1][C][Ring1][#Branch2][Branch1][N][C][=C][C][=C][Branch1][C][Mo][C][=C][Ring1][#Branch1][C][=C][C][=C][Branch1][C][Mo][C][=C][Ring1][#Branch1][C][S][C][Branch2][Ring2][#Branch2][C][=C][C][=C][Branch2][Ring1][#C][/C][=C][\C][=Branch1][C][=O][C][=C][C][Branch1][C][F][=C][Branch1][C][F][C][=C][Ring1][Branch2][C][Ring1][N][=C][Branch1][Ring1][C][#N][C][#N][S][Ring2][Ring1][#Branch1][=C][C][=Ring2][Ring1][N][C][Ring2][Ring2][S][Branch1][N][C][=C][C][=C][Branch1][C][Mo][C][=C][Ring1][#Branch1][C][=C][C][=C][Branch1][C][Mo][C][=C][Ring1][#Branch1][S][Ring2][=Branch1][#Branch2][C][=Branch1][C][=O][C][=C][C][Branch1][C][F][=C][Branch1][C][F][C][=C][Ring1][Branch2][Ring2][#Branch1][#Branch1],{[$]c1ccc(-c2sc(-c3ccc(-c4cc5c(-c6ccc([Cr])s6)c6sc([$])cc6c(-c6ccc([Cr])s6)c5s4)s3)c3c2C(=O)c2c([Cr])sc([Cr])c2C3=O)s1}.N#CC(C#N)=C1/C(=C/c2ccc(-c3cc4c(s3)-c3cc5c(cc3C4(c3ccc([Mo])cc3)c3ccc([Mo])cc3)-c3sc(-c4ccc(/C=C6\C(=O)c7cc(F)c(F)cc7C6=C(C#N)C#N)s4)cc3C5(c3ccc([Mo])cc3)c3ccc([Mo])cc3)s2)C(=O)c2cc(F)c(F)cc21
PBDB-T,IDTOT2F,-5.297777777777778,-3.4170000000000003,-5.54,-3.94,1.0,DCB,8.0,_,25.0,12.79,1277.244,0.85,20.87,72.0,Cc1ccc(-c2sc(-c3ccc(-c4cc5c(-c6ccc([Cr])s6)c6sc(C)cc6c(-c6ccc([Cr])s6)c5s4)s3)c3c2C(=O)c2c([Cr])sc([Cr])c2C3=O)s1.N#CC(C#N)=C1/C(=C/c2ccc(-c3sc4c(c3O[Mo])C(c3ccc([Mo])cc3)(c3ccc([Mo])cc3)c3cc5c(cc3-4)C(c3ccc([Mo])cc3)(c3ccc([Mo])cc3)c3c-5sc(-c4ccc(/C=C5\C(=O)c6cc(F)c(F)cc6C5=C(C#N)C#N)s4)c3O[Mo])s2)C(=O)c2cc(F)c(F)cc21,[C][C][=C][C][=C][Branch2][#Branch1][O][C][S][C][Branch2][Branch1][O][C][=C][C][=C][Branch2][Ring2][S][C][=C][C][=C][Branch1][O][C][=C][C][=C][Branch1][C][Cr][S][Ring1][=Branch1][C][S][C][Branch1][C][C][=C][C][=Ring1][=Branch1][C][Branch1][O][C][=C][C][=C][Branch1][C][Cr][S][Ring1][=Branch1][=C][Ring2][Ring1][=Branch1][S][Ring2][Ring1][=Branch2][S][Ring2][Ring1][=C][=C][C][=Ring2][Ring2][Ring1][C][=Branch1][C][=O][C][=C][Branch1][C][Cr][S][C][Branch1][C][Cr][=C][Ring1][#Branch1][C][Ring1][N][=O][S][Ring2][Branch1][Ring1].[N][#C][C][Branch1][Ring1][C][#N][=C][/C][=Branch2][O][Ring2][=C][/C][=C][C][=C][Branch2][#Branch2][Branch2][C][S][C][=C][Branch1][=Branch1][C][=Ring1][Branch1][O][Mo][C][Branch1][N][C][=C][C][=C][Branch1][C][Mo][C][=C][Ring1][#Branch1][Branch1][N][C][=C][C][=C][Branch1][C][Mo][C][=C][Ring1][#Branch1][C][=C][C][=C][Branch1][Branch2][C][=C][Ring1][=Branch1][Ring2][Ring1][#Branch2][C][Branch1][N][C][=C][C][=C][Branch1][C][Mo][C][=C][Ring1][#Branch1][Branch1][N][C][=C][C][=C][Branch1][C][Mo][C][=C][Ring1][#Branch1][C][=C][Ring2][Ring1][Branch1][S][C][Branch2][Ring2][#Branch2][C][=C][C][=C][Branch2][Ring1][#C][/C][=C][\C][=Branch1][C][=O][C][=C][C][Branch1][C][F][=C][Branch1][C][F][C][=C][Ring1][Branch2][C][Ring1][N][=C][Branch1][Ring1][C][#N][C][#N][S][Ring2][Ring1][#Branch1][=C][Ring2][Ring1][N][O][Mo][S][Ring2][=Branch1][=C][C][=Branch1][C][=O][C][=C][C][Branch1][C][F][=C][Branch1][C][F][C][=C][Ring1][Branch2][Ring2][#Branch1][O],{[$]c1ccc(-c2sc(-c3ccc(-c4cc5c(-c6ccc([Cr])s6)c6sc([$])cc6c(-c6ccc([Cr])s6)c5s4)s3)c3c2C(=O)c2c([Cr])sc([Cr])c2C3=O)s1}.N#CC(C#N)=C1/C(=C/c2ccc(-c3sc4c(c3O[Mo])C(c3ccc([Mo])cc3)(c3ccc([Mo])cc3)c3cc5c(cc3-4)C(c3ccc([Mo])cc3)(c3ccc([Mo])cc3)c3c-5sc(-c4ccc(/C=C5\C(=O)c6cc(F)c(F)cc6C5=C(C#N)C#N)s4)c3O[Mo])s2)C(=O)c2cc(F)c(F)cc21
PBDB-T,IDTIC,-5.297777777777778,-3.4170000000000003,-5.885,-3.91,1.0,CB,10.0,DIO,25.0,6.05,602.69554,0.89,10.94,61.9,Cc1ccc(-c2sc(-c3ccc(-c4cc5c(-c6ccc([Cr])s6)c6sc(C)cc6c(-c6ccc([Cr])s6)c5s4)s3)c3c2C(=O)c2c([Cr])sc([Cr])c2C3=O)s1.N#CC(C#N)=C1/C(=C/c2cc3c(s2)-c2cc4c(cc2C3([Sc])[Sc])-c2sc(/C=C3\C(=O)c5ccccc5C3=C(C#N)C#N)cc2C4([Sc])[Sc])C(=O)c2ccccc21,[C][C][=C][C][=C][Branch2][#Branch1][O][C][S][C][Branch2][Branch1][O][C][=C][C][=C][Branch2][Ring2][S][C][=C][C][=C][Branch1][O][C][=C][C][=C][Branch1][C][Cr][S][Ring1][=Branch1][C][S][C][Branch1][C][C][=C][C][=Ring1][=Branch1][C][Branch1][O][C][=C][C][=C][Branch1][C][Cr][S][Ring1][=Branch1][=C][Ring2][Ring1][=Branch1][S][Ring2][Ring1][=Branch2][S][Ring2][Ring1][=C][=C][C][=Ring2][Ring2][Ring1][C][=Branch1][C][=O][C][=C][Branch1][C][Cr][S][C][Branch1][C][Cr][=C][Ring1][#Branch1][C][Ring1][N][=O][S][Ring2][Branch1][Ring1].[N][#C][C][Branch1][Ring1][C][#N][=C][/C][=Branch2][=Branch1][#Branch1][=C][/C][=C][C][=C][Branch1][Ring2][S][Ring1][Branch1][C][=C][C][=C][Branch1][N][C][=C][Ring1][=Branch1][C][Ring1][#Branch2][Branch1][C][Sc][Sc][C][S][C][Branch2][Ring1][=Branch2][/C][=C][\C][=Branch1][C][=O][C][=C][C][=C][C][=C][Ring1][=Branch1][C][Ring1][#Branch2][=C][Branch1][Ring1][C][#N][C][#N][=C][C][=Ring2][Ring1][Branch1][C][Ring2][Ring1][=N][Branch1][C][Sc][Sc][C][=Branch1][C][=O][C][=C][C][=C][C][=C][Ring1][=Branch1][Ring2][Ring2][P],{[$]c1ccc(-c2sc(-c3ccc(-c4cc5c(-c6ccc([Cr])s6)c6sc([$])cc6c(-c6ccc([Cr])s6)c5s4)s3)c3c2C(=O)c2c([Cr])sc([Cr])c2C3=O)s1}.N#CC(C#N)=C1/C(=C/c2cc3c(s2)-c2cc4c(cc2C3([Sc])[Sc])-c2sc(/C=C3\C(=O)c5ccccc5C3=C(C#N)C#N)cc2C4([Sc])[Sc])C(=O)c2ccccc21
PBDB-T,ITIC,-5.297777777777778,-3.4170000000000003,-5.574285714285715,-3.9143137254901954,1.0,CB,20.0,_,25.0,9.94,994.10922,0.897,16.92,65.5,Cc1ccc(-c2sc(-c3ccc(-c4cc5c(-c6ccc([Cr])s6)c6sc(C)cc6c(-c6ccc([Cr])s6)c5s4)s3)c3c2C(=O)c2c([Cr])sc([Cr])c2C3=O)s1.N#CC(C#N)=C1/C(=C/c2cc3sc4c(c3s2)C(c2ccc([Mo])cc2)(c2ccc([Mo])cc2)c2cc3c(cc2-4)C(c2ccc([Mo])cc2)(c2ccc([Mo])cc2)c2c-3sc3cc(/C=C4\C(=O)c5ccccc5C4=C(C#N)C#N)sc23)C(=O)c2ccccc21,[C][C][=C][C][=C][Branch2][#Branch1][O][C][S][C][Branch2][Branch1][O][C][=C][C][=C][Branch2][Ring2][S][C][=C][C][=C][Branch1][O][C][=C][C][=C][Branch1][C][Cr][S][Ring1][=Branch1][C][S][C][Branch1][C][C][=C][C][=Ring1][=Branch1][C][Branch1][O][C][=C][C][=C][Branch1][C][Cr][S][Ring1][=Branch1][=C][Ring2][Ring1][=Branch1][S][Ring2][Ring1][=Branch2][S][Ring2][Ring1][=C][=C][C][=Ring2][Ring2][Ring1][C][=Branch1][C][=O][C][=C][Branch1][C][Cr][S][C][Branch1][C][Cr][=C][Ring1][#Branch1][C][Ring1][N][=O][S][Ring2][Branch1][Ring1].[N][#C][C][Branch1][Ring1][C][#N][=C][/C][=Branch2][=Branch2][#C][=C][/C][=C][C][S][C][=C][Branch1][#Branch1][C][=Ring1][Branch1][S][Ring1][Branch2][C][Branch1][N][C][=C][C][=C][Branch1][C][Mo][C][=C][Ring1][#Branch1][Branch1][N][C][=C][C][=C][Branch1][C][Mo][C][=C][Ring1][#Branch1][C][=C][C][=C][Branch1][Branch2][C][=C][Ring1][=Branch1][Ring2][Ring1][=Branch2][C][Branch1][N][C][=C][C][=C][Branch1][C][Mo][C][=C][Ring1][#Branch1][Branch1][N][C][=C][C][=C][Branch1][C][Mo][C][=C][Ring1][#Branch1][C][=C][Ring2][Ring1][Branch1][S][C][C][=C][Branch2][Ring1][=Branch2][/C][=C][\C][=Branch1][C][=O][C][=C][C][=C][C][=C][Ring1][=Branch1][C][Ring1][#Branch2][=C][Branch1][Ring1][C][#N][C][#N][S][C][Ring2][Ring1][Branch2][=Ring2][Ring1][Branch1][C][=Branch1][C][=O][C][=C][C][=C][C][=C][Ring1][=Branch1][Ring2][=Branch1][#C],{[$]c1ccc(-c2sc(-c3ccc(-c4cc5c(-c6ccc([Cr])s6)c6sc([$])cc6c(-c6ccc([Cr])s6)c5s4)s3)c3c2C(=O)c2c([Cr])sc([Cr])c2C3=O)s1}.N#CC(C#N)=C1/C(=C/c2cc3sc4c(c3s2)C(c2ccc([Mo])cc2)(c2ccc([Mo])cc2)c2cc3c(cc2-4)C(c2ccc([Mo])cc2)(c2ccc([Mo])cc2)c2c-3sc3cc(/C=C4\C(=O)c5ccccc5C4=C(C#N)C#N)sc23)C(=O)c2ccccc21
PBDB-T,ITCT,-5.297777777777778,-3.4170000000000003,-5.5888888888888895,-3.836666666666667,1.0,CB,20.0,_,25.0,10.99,1098.8154,0.85,17.88,72.3,Cc1ccc(-c2sc(-c3ccc(-c4cc5c(-c6ccc([Cr])s6)c6sc(C)cc6c(-c6ccc([Cr])s6)c5s4)s3)c3c2C(=O)c2c([Cr])sc([Cr])c2C3=O)s1.N#CC(C#N)=C1/C(=C/c2cc3sc4c(c3s2)C(c2ccc([Mo])cc2)(c2ccc([Mo])cc2)c2cc3c(cc2-4)C(c2ccc([Mo])cc2)(c2ccc([Mo])cc2)c2c-3sc3cc(/C=C4\C(=O)c5cscc5C4=C(C#N)C#N)sc23)C(=O)c2cscc21,[C][C][=C][C][=C][Branch2][#Branch1][O][C][S][C][Branch2][Branch1][O][C][=C][C][=C][Branch2][Ring2][S][C][=C][C][=C][Branch1][O][C][=C][C][=C][Branch1][C][Cr][S][Ring1][=Branch1][C][S][C][Branch1][C][C][=C][C][=Ring1][=Branch1][C][Branch1][O][C][=C][C][=C][Branch1][C][Cr][S][Ring1][=Branch1][=C][Ring2][Ring1][=Branch1][S][Ring2][Ring1][=Branch2][S][Ring2][Ring1][=C][=C][C][=Ring2][Ring2][Ring1][C][=Branch1][C][=O][C][=C][Branch1][C][Cr][S][C][Branch1][C][Cr][=C][Ring1][#Branch1][C][Ring1][N][=O][S][Ring2][Branch1][Ring1].[N][#C][C][Branch1][Ring1][C][#N][=C][/C][=Branch2][=Branch2][=C][=C][/C][=C][C][S][C][=C][Branch1][#Branch1][C][=Ring1][Branch1][S][Ring1][Branch2][C][Branch1][N][C][=C][C][=C][Branch1][C][Mo][C][=C][Ring1][#Branch1][Branch1][N][C][=C][C][=C][Branch1][C][Mo][C][=C][Ring1][#Branch1][C][=C][C][=C][Branch1][Branch2][C][=C][Ring1][=Branch1][Ring2][Ring1][=Branch2][C][Branch1][N][C][=C][C][=C][Branch1][C][Mo][C][=C][Ring1][#Branch1][Branch1][N][C][=C][C][=C][Branch1][C][Mo][C][=C][Ring1][#Branch1][C][=C][Ring2][Ring1][Branch1][S][C][C][=C][Branch2][Ring1][Branch2][/C][=C][\C][=Branch1][C][=O][C][=C][S][C][=C][Ring1][Branch1][C][Ring1][=Branch2][=C][Branch1][Ring1][C][#N][C][#N][S][C][Ring2][Ring1][#Branch1][=Ring2][Ring1][Ring2][C][=Branch1][C][=O][C][=C][S][C][=C][Ring1][Branch1][Ring2][=Branch1][=N],{[$]c1ccc(-c2sc(-c3ccc(-c4cc5c(-c6ccc([Cr])s6)c6sc([$])cc6c(-c6ccc([Cr])s6)c5s4)s3)c3c2C(=O)c2c([Cr])sc([Cr])c2C3=O)s1}.N#CC(C#N)=C1/C(=C/c2cc3sc4c(c3s2)C(c2ccc([Mo])cc2)(c2ccc([Mo])cc2)c2cc3c(cc2-4)C(c2ccc([Mo])cc2)(c2ccc([Mo])cc2)c2c-3sc3cc(/C=C4\C(=O)c5cscc5C4=C(C#N)C#N)sc23)C(=O)c2cscc21
P3HT,IDT-RCN,-5.057777777777777,-2.989444444444445,-5.575,-3.77,1.25,CB,14.4,CN,25.0,3.42,344.2824,0.69,7.92,63.0,CCCCCCc1cc(-c2sc(-c3sc(-c4sc(C)cc4CCCCCC)cc3CCCCCC)cc2CCCCCC)sc1C.CCn1c(=C(C#N)C#N)s/c(=C\c2ccc(-c3cc4c(s3)-c3cc5c(cc3C4(c3ccc([Mo])cc3)c3ccc([Mo])cc3)-c3sc(-c4ccc(/C=c6\sc(=C(C#N)C#N)n(CC)c6=O)c6nsnc46)cc3C5(c3ccc([Mo])cc3)c3ccc([Mo])cc3)c3nsnc23)c1=O,[C][C][C][C][C][C][C][C][=C][Branch2][Ring2][P][C][S][C][Branch2][Ring1][S][C][S][C][Branch1][P][C][S][C][Branch1][C][C][=C][C][=Ring1][=Branch1][C][C][C][C][C][C][=C][C][=Ring1][P][C][C][C][C][C][C][=C][C][=Ring2][Ring1][N][C][C][C][C][C][C][S][C][=Ring2][Ring2][#Branch1][C].[C][C][N][C][=Branch1][Branch2][=C][Branch1][Ring1][C][#N][C][#N][S][/C][=Branch2][#Branch2][S][=C][\C][=C][C][=C][Branch2][=Branch2][=C][C][=C][C][=C][Branch1][Ring2][S][Ring1][Branch1][C][=C][C][=C][Branch2][Ring1][S][C][=C][Ring1][=Branch1][C][Ring1][#Branch2][Branch1][N][C][=C][C][=C][Branch1][C][Mo][C][=C][Ring1][#Branch1][C][=C][C][=C][Branch1][C][Mo][C][=C][Ring1][#Branch1][C][S][C][Branch2][Ring2][Branch2][C][=C][C][=C][Branch2][Ring1][#Branch1][/C][=C][\S][C][=Branch1][Branch2][=C][Branch1][Ring1][C][#N][C][#N][N][Branch1][Ring1][C][C][C][Ring1][N][=O][C][=N][S][N][=C][Ring2][Ring1][#Branch1][Ring1][Branch1][=C][C][=Ring2][Ring1][N][C][Ring2][Ring2][S][Branch1][N][C][=C][C][=C][Branch1][C][Mo][C][=C][Ring1][#Branch1][C][=C][C][=C][Branch1][C][Mo][C][=C][Ring1][#Branch1][C][=N][S][N][=C][Ring2][=Branch1][=C][Ring1][Branch1][C][Ring2][#Branch1][=Branch2][=O],{CCCCCCc1cc(-c2sc(-c3sc(-c4sc([$])cc4CCCCCC)cc3CCCCCC)cc2CCCCCC)sc1[$]}.CCn1c(=C(C#N)C#N)s/c(=C\c2ccc(-c3cc4c(s3)-c3cc5c(cc3C4(c3ccc([Mo])cc3)c3ccc([Mo])cc3)-c3sc(-c4ccc(/C=c6\sc(=C(C#N)C#N)n(CC)c6=O)c6nsnc46)cc3C5(c3ccc([Mo])cc3)c3ccc([Mo])cc3)c3nsnc23)c1=O
P3HT,IDT-CA,-5.057777777777777,-2.989444444444445,-5.59,-3.64,1.25,CB,14.4,CN,25.0,4.19,417.7152,0.84,7.77,64.0,CCCCCCc1cc(-c2sc(-c3sc(-c4sc(C)cc4CCCCCC)cc3CCCCCC)cc2CCCCCC)sc1C.CCOC(=O)/C(C#N)=C/c1ccc(-c2cc3c(s2)-c2cc4c(cc2C3(c2ccc([Mo])cc2)c2ccc([Mo])cc2)-c2sc(-c3ccc(/C=C(\C#N)C(=O)OCC)c5nsnc35)cc2C4(c2ccc([Mo])cc2)c2ccc([Mo])cc2)c2nsnc12,[C][C][C][C][C][C][C][C][=C][Branch2][Ring2][P][C][S][C][Branch2][Ring1][S][C][S][C][Branch1][P][C][S][C][Branch1][C][C][=C][C][=Ring1][=Branch1][C][C][C][C][C][C][=C][C][=Ring1][P][C][C][C][C][C][C][=C][C][=Ring2][Ring1][N][C][C][C][C][C][C][S][C][=Ring2][Ring2][#Branch1][C].[C][C][O][C][=Branch1][C][=O][/C][Branch1][Ring1][C][#N][=C][/C][=C][C][=C][Branch2][=Branch2][Ring2][C][=C][C][=C][Branch1][Ring2][S][Ring1][Branch1][C][=C][C][=C][Branch2][Ring1][S][C][=C][Ring1][=Branch1][C][Ring1][#Branch2][Branch1][N][C][=C][C][=C][Branch1][C][Mo][C][=C][Ring1][#Branch1][C][=C][C][=C][Branch1][C][Mo][C][=C][Ring1][#Branch1][C][S][C][Branch2][Ring1][=C][C][=C][C][=C][Branch1][=C][/C][=C][Branch1][Ring1][\C][#N][C][=Branch1][C][=O][O][C][C][C][=N][S][N][=C][Ring2][Ring1][C][Ring1][Branch1][=C][C][=Ring2][Ring1][#Branch1][C][Ring2][Ring2][O][Branch1][N][C][=C][C][=C][Branch1][C][Mo][C][=C][Ring1][#Branch1][C][=C][C][=C][Branch1][C][Mo][C][=C][Ring1][#Branch1][C][=N][S][N][=C][Ring2][=Branch1][=Branch2][Ring1][Branch1],{CCCCCCc1cc(-c2sc(-c3sc(-c4sc([$])cc4CCCCCC)cc3CCCCCC)cc2CCCCCC)sc1[$]}.CCOC(=O)/C(C#N)=C/c1ccc(-c2cc3c(s2)-c2cc4c(cc2C3(c2ccc([Mo])cc2)c2ccc([Mo])cc2)-c2sc(-c3ccc(/C=C(\C#N)C(=O)OCC)c5nsnc35)cc2C4(c2ccc([Mo])cc2)c2ccc([Mo])cc2)c2nsnc12