Donor,Acceptor,HOMO_D_eV,LUMO_D_eV,HOMO_A_eV,LUMO_A_eV,D_A_ratio_m_m,solvent,total_solids_conc_mg_mL,solvent_additive,annealing_temperature,PCE_percent,calc_PCE_percent,Voc_V,Jsc_mA_cm_pow_neg2,FF_percent,DA_SMILES,DA_SELFIES,DA_BigSMILES
P1_BDT-TBT,PY1,-5.1,-3.48,-5.27,-4.0,0.5,CF,18.0,DIO,25.0,4.89,489.4344,0.83,10.53,56.0,CCCCCCCCCCCCSOc1c2cc(-c3ccc(-c4ccc(-c5ccc(C)s5)c5nsnc45)s3)sc2c(OSCCCCCCCCCCCC)c2cc(C)sc12.CCCCCCCCCCCCCCCCCn1c2cc(-c3sc(-c4sc(/C=C5\C(=O)N(CCCC)C(=O)C(C#N)C5C)cc4CCCCCC)cc3CCCCCC)sc2c2sc(-c3sc(-c4sc(/C=C5\C(=O)N(CCCC)C(=O)C(C#N)C5C)cc4CCCCCC)cc3CCCCCC)cc21,[C][C][C][C][C][C][C][C][C][C][C][C][S][O][C][=C][C][=C][Branch2][Ring2][Branch1][C][=C][C][=C][Branch2][Ring1][#Branch2][C][=C][C][=C][Branch1][O][C][=C][C][=C][Branch1][C][C][S][Ring1][=Branch1][C][=N][S][N][=C][Ring1][#C][Ring1][Branch1][S][Ring2][Ring1][Ring2][S][C][Ring2][Ring1][=Branch2][=C][Branch1][#C][O][S][C][C][C][C][C][C][C][C][C][C][C][C][C][C][=C][Branch1][C][C][S][C][Ring2][Ring2][#C][=Ring1][=Branch1].[C][C][C][C][C][C][C][C][C][C][C][C][C][C][C][C][C][N][C][C][=C][Branch2][Branch1][=N][C][S][C][Branch2][Ring2][N][C][S][C][Branch2][Ring1][O][/C][=C][\C][=Branch1][C][=O][N][Branch1][Branch1][C][C][C][C][C][=Branch1][C][=O][C][Branch1][Ring1][C][#N][C][Ring1][=C][C][=C][C][=Ring2][Ring1][Branch1][C][C][C][C][C][C][=C][C][=Ring2][Ring1][S][C][C][C][C][C][C][S][C][=Ring2][Ring2][O][C][S][C][Branch2][Branch1][=N][C][S][C][Branch2][Ring2][N][C][S][C][Branch2][Ring1][O][/C][=C][\C][=Branch1][C][=O][N][Branch1][Branch1][C][C][C][C][C][=Branch1][C][=O][C][Branch1][Ring1][C][#N][C][Ring1][=C][C][=C][C][=Ring2][Ring1][Branch1][C][C][C][C][C][C][=C][C][=Ring2][Ring1][S][C][C][C][C][C][C][=C][C][=Ring2][Ring2][O][Ring2][#Branch1][#Branch1],{CCCCCCCCCCCCSOc1c2cc(-c3ccc(-c4ccc(-c5ccc([$])s5)c5nsnc45)s3)sc2c(OSCCCCCCCCCCCC)c2cc([$])sc12}.CCCCCCCCCCCCCCCCCn1c2cc(-c3sc(-c4sc(/C=C5\C(=O)N(CCCC)C(=O)C(C#N)C5C)cc4CCCCCC)cc3CCCCCC)sc2c2sc(-c3sc(-c4sc(/C=C5\C(=O)N(CCCC)C(=O)C(C#N)C5C)cc4CCCCCC)cc3CCCCCC)cc21
P1_BDT-TBT,DCI-2,-5.1,-3.48,-5.24,-4.05,0.5,CF,18.0,DIO,25.0,6.94,694.008,0.8,13.77,63.0,CCCCCCCCCCCCSOc1c2cc(-c3ccc(-c4ccc(-c5ccc(C)s5)c5nsnc45)s3)sc2c(OSCCCCCCCCCCCC)c2cc(C)sc12.N#CC(C#N)=C1/C(=C/c2cc([Mo])c(-c3cc([Mo])c(-c4cc5c(s4)c4sc(-c6sc(-c7sc(/C=C8\C(=O)c9ccccc9C8=C(C#N)C#N)cc7[Mo])cc6[Mo])cc4n5[Ag])s3)s2)C(=O)c2ccccc21,[C][C][C][C][C][C][C][C][C][C][C][C][S][O][C][=C][C][=C][Branch2][Ring2][Branch1][C][=C][C][=C][Branch2][Ring1][#Branch2][C][=C][C][=C][Branch1][O][C][=C][C][=C][Branch1][C][C][S][Ring1][=Branch1][C][=N][S][N][=C][Ring1][#C][Ring1][Branch1][S][Ring2][Ring1][Ring2][S][C][Ring2][Ring1][=Branch2][=C][Branch1][#C][O][S][C][C][C][C][C][C][C][C][C][C][C][C][C][C][=C][Branch1][C][C][S][C][Ring2][Ring2][#C][=Ring1][=Branch1].[N][#C][C][Branch1][Ring1][C][#N][=C][/C][=Branch2][Branch2][#Branch1][=C][/C][=C][C][Branch1][C][Mo][=C][Branch2][#Branch1][Branch2][C][=C][C][Branch1][C][Mo][=C][Branch2][=Branch1][#Branch2][C][=C][C][=C][Branch1][Ring2][S][Ring1][Branch1][C][S][C][Branch2][Ring2][P][C][S][C][Branch2][Ring2][Branch1][C][S][C][Branch2][Ring1][=Branch2][/C][=C][\C][=Branch1][C][=O][C][=C][C][=C][C][=C][Ring1][=Branch1][C][Ring1][#Branch2][=C][Branch1][Ring1][C][#N][C][#N][=C][C][=Ring2][Ring1][Branch1][Mo][=C][C][=Ring2][Ring1][O][Mo][=C][C][=Ring2][Ring1][P][N][Ring2][Ring2][Branch1][Ag][S][Ring2][Ring2][=C][S][Ring2][Branch1][Ring2][C][=Branch1][C][=O][C][=C][C][=C][C][=C][Ring1][=Branch1][Ring2][Branch1][#C],{CCCCCCCCCCCCSOc1c2cc(-c3ccc(-c4ccc(-c5ccc([$])s5)c5nsnc45)s3)sc2c(OSCCCCCCCCCCCC)c2cc([$])sc12}.N#CC(C#N)=C1/C(=C/c2cc([Mo])c(-c3cc([Mo])c(-c4cc5c(s4)c4sc(-c6sc(-c7sc(/C=C8\C(=O)c9ccccc9C8=C(C#N)C#N)cc7[Mo])cc6[Mo])cc4n5[Ag])s3)s2)C(=O)c2ccccc21
PBDTTT-C-T,DC-IDT2F,-5.125,-3.265,-5.44,-3.88,2.0,o-DCB,20.0,_,25.0,3.08,308.21376,0.96,6.32,50.8,Cc1cc2c(-c3ccc([Cr])s3)c3sc(-c4sc(C)c5cc(C(=O)[Cr])sc45)cc3c(-c3ccc([Cr])s3)c2s1.N#CC(C#N)=C1/C(=C/c2ccc(-c3ccc4c(c3)C(c3ccc([Mo])cc3)(c3ccc([Mo])cc3)c3cc5c(cc3-4)C(c3ccc([Mo])cc3)(c3ccc([Mo])cc3)c3cc(-c4ccc(/C=C6\C(=O)c7ccccc7C6=C(C#N)C#N)o4)ccc3-5)o2)C(=O)c2ccccc21,[C][C][=C][C][=C][Branch1][O][C][=C][C][=C][Branch1][C][Cr][S][Ring1][=Branch1][C][S][C][Branch2][Ring1][#Branch1][C][S][C][Branch1][C][C][=C][C][=C][Branch1][=Branch1][C][=Branch1][C][=O][Cr][S][C][=Ring1][N][Ring1][Branch2][=C][C][=Ring1][P][C][Branch1][O][C][=C][C][=C][Branch1][C][Cr][S][Ring1][=Branch1][=C][Ring2][Ring1][P][S][Ring2][Ring2][Ring2].[N][#C][C][Branch1][Ring1][C][#N][=C][/C][=Branch2][#Branch2][N][=C][/C][=C][C][=C][Branch2][=Branch2][S][C][=C][C][=C][C][=Branch1][Ring2][=C][Ring1][=Branch1][C][Branch1][N][C][=C][C][=C][Branch1][C][Mo][C][=C][Ring1][#Branch1][Branch1][N][C][=C][C][=C][Branch1][C][Mo][C][=C][Ring1][#Branch1][C][=C][C][=C][Branch1][Branch2][C][=C][Ring1][=Branch1][Ring2][Ring1][Branch2][C][Branch1][N][C][=C][C][=C][Branch1][C][Mo][C][=C][Ring1][#Branch1][Branch1][N][C][=C][C][=C][Branch1][C][Mo][C][=C][Ring1][#Branch1][C][=C][C][Branch2][Ring2][Ring2][C][=C][C][=C][Branch2][Ring1][=Branch2][/C][=C][\C][=Branch1][C][=O][C][=C][C][=C][C][=C][Ring1][=Branch1][C][Ring1][#Branch2][=C][Branch1][Ring1][C][#N][C][#N][O][Ring2][Ring1][Branch1][=C][C][=C][Ring2][Ring1][O][Ring2][Ring2][=C][O][Ring2][=Branch1][#Branch2][C][=Branch1][C][=O][C][=C][C][=C][C][=C][Ring1][=Branch1][Ring2][#Branch1][Branch1],{[$]c1cc2c(-c3ccc([Cr])s3)c3sc(-c4sc([$])c5cc(C(=O)[Cr])sc45)cc3c(-c3ccc([Cr])s3)c2s1}.N#CC(C#N)=C1/C(=C/c2ccc(-c3ccc4c(c3)C(c3ccc([Mo])cc3)(c3ccc([Mo])cc3)c3cc5c(cc3-4)C(c3ccc([Mo])cc3)(c3ccc([Mo])cc3)c3cc(-c4ccc(/C=C6\C(=O)c7ccccc7C6=C(C#N)C#N)o4)ccc3-5)o2)C(=O)c2ccccc21
PTB7-Th,IM-IDT,-5.21,-3.542368421052632,-5.44,-4.0,1.0,o-DCB,10.0,DPE,100.0,1.6,141.423488,0.58,4.96,49.16,Cc1cc2c(-c3ccc([Cr])s3)c3sc(-c4sc(C)c5c(F)c(C(=O)O[Cr])sc45)cc3c(-c3ccc([Cr])s3)c2s1.N#CC(C#N)=C1C(=O)N([Cr])c2cc(-c3cc4c(s3)-c3cc5c(cc3C4(c3ccc([Mo])cc3)c3ccc([Mo])cc3)-c3sc(-c4ccc6c(c4)N([Cr])C(=O)C6=C(C#N)C#N)cc3C5(c3ccc([Mo])cc3)c3ccc([Mo])cc3)ccc21,[C][C][=C][C][=C][Branch1][O][C][=C][C][=C][Branch1][C][Cr][S][Ring1][=Branch1][C][S][C][Branch2][Ring1][O][C][S][C][Branch1][C][C][=C][C][Branch1][C][F][=C][Branch1][#Branch1][C][=Branch1][C][=O][O][Cr][S][C][=Ring1][=C][Ring1][#Branch2][=C][C][=Ring2][Ring1][Ring1][C][Branch1][O][C][=C][C][=C][Branch1][C][Cr][S][Ring1][=Branch1][=C][Ring2][Ring2][Ring1][S][Ring2][Ring2][=Branch1].[N][#C][C][Branch1][Ring1][C][#N][=C][C][=Branch1][C][=O][N][Branch1][C][Cr][C][=C][C][Branch2][=Branch2][Ring1][C][=C][C][=C][Branch1][Ring2][S][Ring1][Branch1][C][=C][C][=C][Branch2][Ring1][S][C][=C][Ring1][=Branch1][C][Ring1][#Branch2][Branch1][N][C][=C][C][=C][Branch1][C][Mo][C][=C][Ring1][#Branch1][C][=C][C][=C][Branch1][C][Mo][C][=C][Ring1][#Branch1][C][S][C][Branch2][Ring1][=N][C][=C][C][=C][C][=Branch1][Ring2][=C][Ring1][=Branch1][N][Branch1][C][Cr][C][=Branch1][C][=O][C][Ring1][Branch2][=C][Branch1][Ring1][C][#N][C][#N][=C][C][=Ring2][Ring1][Branch1][C][Ring2][Ring2][=Branch2][Branch1][N][C][=C][C][=C][Branch1][C][Mo][C][=C][Ring1][#Branch1][C][=C][C][=C][Branch1][C][Mo][C][=C][Ring1][#Branch1][=C][C][=C][Ring2][=Branch1][Ring2][Ring2][=Branch1][=Branch2],{[$]c1cc2c(-c3ccc([Cr])s3)c3sc(-c4sc([$])c5c(F)c(C(=O)O[Cr])sc45)cc3c(-c3ccc([Cr])s3)c2s1}.N#CC(C#N)=C1C(=O)N([Cr])c2cc(-c3cc4c(s3)-c3cc5c(cc3C4(c3ccc([Mo])cc3)c3ccc([Mo])cc3)-c3sc(-c4ccc6c(c4)N([Cr])C(=O)C6=C(C#N)C#N)cc3C5(c3ccc([Mo])cc3)c3ccc([Mo])cc3)ccc21
PTB7-Th,TIM-IDT,-5.21,-3.542368421052632,-5.36,-4.01,1.0,o-DCB,10.0,_,25.0,1.63,143.69268,0.6,5.26,45.53,Cc1cc2c(-c3ccc([Cr])s3)c3sc(-c4sc(C)c5c(F)c(C(=O)O[Cr])sc45)cc3c(-c3ccc([Cr])s3)c2s1.N#CC(C#N)=C1C(=O)N([Cr])c2cc(-c3cc4c(s3)-c3cc5c(cc3C4(c3ccc([Mo])cc3)c3ccc([Mo])cc3)-c3sc(-c4cc6c(s4)C(=C(C#N)C#N)C(=O)N6[Cr])cc3C5(c3ccc([Mo])cc3)c3ccc([Mo])cc3)sc21,[C][C][=C][C][=C][Branch1][O][C][=C][C][=C][Branch1][C][Cr][S][Ring1][=Branch1][C][S][C][Branch2][Ring1][O][C][S][C][Branch1][C][C][=C][C][Branch1][C][F][=C][Branch1][#Branch1][C][=Branch1][C][=O][O][Cr][S][C][=Ring1][=C][Ring1][#Branch2][=C][C][=Ring2][Ring1][Ring1][C][Branch1][O][C][=C][C][=C][Branch1][C][Cr][S][Ring1][=Branch1][=C][Ring2][Ring2][Ring1][S][Ring2][Ring2][=Branch1].[N][#C][C][Branch1][Ring1][C][#N][=C][C][=Branch1][C][=O][N][Branch1][C][Cr][C][C][=C][Branch2][=Branch2][C][C][=C][C][=C][Branch1][Ring2][S][Ring1][Branch1][C][=C][C][=C][Branch2][Ring1][S][C][=C][Ring1][=Branch1][C][Ring1][#Branch2][Branch1][N][C][=C][C][=C][Branch1][C][Mo][C][=C][Ring1][#Branch1][C][=C][C][=C][Branch1][C][Mo][C][=C][Ring1][#Branch1][C][S][C][Branch2][Ring1][N][C][=C][C][=C][Branch1][Ring2][S][Ring1][Branch1][C][=Branch1][Branch2][=C][Branch1][Ring1][C][#N][C][#N][C][=Branch1][C][=O][N][Ring1][N][Cr][=C][C][=Ring2][Ring1][Ring2][C][Ring2][Ring2][Branch2][Branch1][N][C][=C][C][=C][Branch1][C][Mo][C][=C][Ring1][#Branch1][C][=C][C][=C][Branch1][C][Mo][C][=C][Ring1][#Branch1][S][C][=Ring2][=Branch1][C][Ring2][=Branch1][#Branch1],{[$]c1cc2c(-c3ccc([Cr])s3)c3sc(-c4sc([$])c5c(F)c(C(=O)O[Cr])sc45)cc3c(-c3ccc([Cr])s3)c2s1}.N#CC(C#N)=C1C(=O)N([Cr])c2cc(-c3cc4c(s3)-c3cc5c(cc3C4(c3ccc([Mo])cc3)c3ccc([Mo])cc3)-c3sc(-c4cc6c(s4)C(=C(C#N)C#N)C(=O)N6[Cr])cc3C5(c3ccc([Mo])cc3)c3ccc([Mo])cc3)sc21
PTB7-Th,COTIC-4F,-5.21,-3.542368421052632,-5.26,-4.16,0.667,CB,20.0,CN,25.0,6.4,640.0184,0.56,20.3,56.3,Cc1cc2c(-c3ccc([Cr])s3)c3sc(-c4sc(C)c5c(F)c(C(=O)O[Cr])sc45)cc3c(-c3ccc([Cr])s3)c2s1.N#CC(C#N)=C1/C(=C/c2cc(O[Cr])c(-c3cc4c(s3)-c3sc(-c5sc(/C=C6\C(=O)c7ccccc7C6=C(C#N)C#N)cc5O[Cr])cc3C4([Cr])[Cr])s2)C(=O)c2ccccc21,[C][C][=C][C][=C][Branch1][O][C][=C][C][=C][Branch1][C][Cr][S][Ring1][=Branch1][C][S][C][Branch2][Ring1][O][C][S][C][Branch1][C][C][=C][C][Branch1][C][F][=C][Branch1][#Branch1][C][=Branch1][C][=O][O][Cr][S][C][=Ring1][=C][Ring1][#Branch2][=C][C][=Ring2][Ring1][Ring1][C][Branch1][O][C][=C][C][=C][Branch1][C][Cr][S][Ring1][=Branch1][=C][Ring2][Ring2][Ring1][S][Ring2][Ring2][=Branch1].[N][#C][C][Branch1][Ring1][C][#N][=C][/C][=Branch2][#Branch1][C][=C][/C][=C][C][Branch1][Ring1][O][Cr][=C][Branch2][=Branch1][C][C][=C][C][=C][Branch1][Ring2][S][Ring1][Branch1][C][S][C][Branch2][Ring2][=Branch1][C][S][C][Branch2][Ring1][=Branch2][/C][=C][\C][=Branch1][C][=O][C][=C][C][=C][C][=C][Ring1][=Branch1][C][Ring1][#Branch2][=C][Branch1][Ring1][C][#N][C][#N][=C][C][=Ring2][Ring1][Branch1][O][Cr][=C][C][=Ring2][Ring1][N][C][Ring2][Ring1][S][Branch1][C][Cr][Cr][S][Ring2][Ring2][O][C][=Branch1][C][=O][C][=C][C][=C][C][=C][Ring1][=Branch1][Ring2][Branch1][=Branch1],{[$]c1cc2c(-c3ccc([Cr])s3)c3sc(-c4sc([$])c5c(F)c(C(=O)O[Cr])sc45)cc3c(-c3ccc([Cr])s3)c2s1}.N#CC(C#N)=C1/C(=C/c2cc(O[Cr])c(-c3cc4c(s3)-c3sc(-c5sc(/C=C6\C(=O)c7ccccc7C6=C(C#N)C#N)cc5O[Cr])cc3C4([Cr])[Cr])s2)C(=O)c2ccccc21
PTB7-Th,SiOTIC-4F,-5.21,-3.542368421052632,-5.28,-4.11,0.667,CF,20.0,CN,25.0,8.6,862.056,0.65,21.6,61.4,Cc1cc2c(-c3ccc([Cr])s3)c3sc(-c4sc(C)c5c(F)c(C(=O)O[Cr])sc45)cc3c(-c3ccc([Cr])s3)c2s1.N#CC(C#N)=C1/C(=C/c2cc(O[Cr])c(-c3cc4c(s3)-c3sc(-c5sc(/C=C6\C(=O)c7cc(F)c(F)cc7C6=C(C#N)C#N)cc5O[Cr])cc3[Si]4([Cr])[Cr])s2)C(=O)c2cc(F)c(F)cc21,[C][C][=C][C][=C][Branch1][O][C][=C][C][=C][Branch1][C][Cr][S][Ring1][=Branch1][C][S][C][Branch2][Ring1][O][C][S][C][Branch1][C][C][=C][C][Branch1][C][F][=C][Branch1][#Branch1][C][=Branch1][C][=O][O][Cr][S][C][=Ring1][=C][Ring1][#Branch2][=C][C][=Ring2][Ring1][Ring1][C][Branch1][O][C][=C][C][=C][Branch1][C][Cr][S][Ring1][=Branch1][=C][Ring2][Ring2][Ring1][S][Ring2][Ring2][=Branch1].[N][#C][C][Branch1][Ring1][C][#N][=C][/C][=Branch2][#Branch1][Branch2][=C][/C][=C][C][Branch1][Ring1][O][Cr][=C][Branch2][=Branch1][Branch2][C][=C][C][=C][Branch1][Ring2][S][Ring1][Branch1][C][S][C][Branch2][Ring2][N][C][S][C][Branch2][Ring1][#C][/C][=C][\C][=Branch1][C][=O][C][=C][C][Branch1][C][F][=C][Branch1][C][F][C][=C][Ring1][Branch2][C][Ring1][N][=C][Branch1][Ring1][C][#N][C][#N][=C][C][=Ring2][Ring1][#Branch1][O][Cr][=C][C][=Ring2][Ring1][=C][Si][Ring2][Ring2][C][Branch1][C][Cr][Cr][S][Ring2][Ring2][=N][C][=Branch1][C][=O][C][=C][C][Branch1][C][F][=C][Branch1][C][F][C][=C][Ring1][Branch2][Ring2][Branch1][#Branch2],{[$]c1cc2c(-c3ccc([Cr])s3)c3sc(-c4sc([$])c5c(F)c(C(=O)O[Cr])sc45)cc3c(-c3ccc([Cr])s3)c2s1}.N#CC(C#N)=C1/C(=C/c2cc(O[Cr])c(-c3cc4c(s3)-c3sc(-c5sc(/C=C6\C(=O)c7cc(F)c(F)cc7C6=C(C#N)C#N)cc5O[Cr])cc3[Si]4([Cr])[Cr])s2)C(=O)c2cc(F)c(F)cc21
P3HT,BTA100,-5.057777777777777,-2.989444444444445,-4.98,-2.81,1.0,CF,15.0,_,100.0,1.04,103.917,1.34,1.65,47.0,CCCCCCc1cc(-c2sc(-c3sc(-c4sc(C)cc4CCCCCC)cc3CCCCCC)cc2CCCCCC)sc1C.CCN1C(=O)S/C(=C/c2c(OC)c(OC)c(-c3cc4c(s3)-c3cc5c(cc3C4(c3ccc([Mo])cc3)c3ccc([Mo])cc3)-c3sc(-c4c(OC)c(OC)c(/C=C6/SC(=O)N(CC)C6=O)c6nn([Ti])nc46)cc3C5(c3ccc([Mo])cc3)c3ccc([Mo])cc3)c3nn([Ti])nc23)C1=O,[C][C][C][C][C][C][C][C][=C][Branch2][Ring2][P][C][S][C][Branch2][Ring1][S][C][S][C][Branch1][P][C][S][C][Branch1][C][C][=C][C][=Ring1][=Branch1][C][C][C][C][C][C][=C][C][=Ring1][P][C][C][C][C][C][C][=C][C][=Ring2][Ring1][N][C][C][C][C][C][C][S][C][=Ring2][Ring2][#Branch1][C].[C][C][N][C][=Branch1][C][=O][S][/C][=Branch2][O][#C][=C][/C][=C][Branch1][Ring1][O][C][C][Branch1][Ring1][O][C][=C][Branch2][#Branch2][C][C][=C][C][=C][Branch1][Ring2][S][Ring1][Branch1][C][=C][C][=C][Branch2][Ring1][S][C][=C][Ring1][=Branch1][C][Ring1][#Branch2][Branch1][N][C][=C][C][=C][Branch1][C][Mo][C][=C][Ring1][#Branch1][C][=C][C][=C][Branch1][C][Mo][C][=C][Ring1][#Branch1][C][S][C][Branch2][Ring2][N][C][=C][Branch1][Ring1][O][C][C][Branch1][Ring1][O][C][=C][Branch1][P][/C][=C][/S][C][=Branch1][C][=O][N][Branch1][Ring1][C][C][C][Ring1][Branch2][=O][C][=N][N][Branch1][C][Ti][N][=C][Ring2][Ring1][Branch2][Ring1][=Branch1][=C][C][=Ring2][Ring1][=N][C][Ring2][Ring2][P][Branch1][N][C][=C][C][=C][Branch1][C][Mo][C][=C][Ring1][#Branch1][C][=C][C][=C][Branch1][C][Mo][C][=C][Ring1][#Branch1][C][=N][N][Branch1][C][Ti][N][=C][Ring2][#Branch1][Ring2][Ring1][=Branch1][C][Ring2][#Branch1][O][=O],{CCCCCCc1cc(-c2sc(-c3sc(-c4sc([$])cc4CCCCCC)cc3CCCCCC)cc2CCCCCC)sc1[$]}.CCN1C(=O)S/C(=C/c2c(OC)c(OC)c(-c3cc4c(s3)-c3cc5c(cc3C4(c3ccc([Mo])cc3)c3ccc([Mo])cc3)-c3sc(-c4c(OC)c(OC)c(/C=C6/SC(=O)N(CC)C6=O)c6nn([Ti])nc46)cc3C5(c3ccc([Mo])cc3)c3ccc([Mo])cc3)c3nn([Ti])nc23)C1=O
P3HT,BTA101,-5.057777777777777,-2.989444444444445,-5.05,-2.99,1.0,CF,15.0,_,120.0,3.55,355.1912,1.19,5.33,56.0,CCCCCCc1cc(-c2sc(-c3sc(-c4sc(C)cc4CCCCCC)cc3CCCCCC)cc2CCCCCC)sc1C.CCN1C(=O)/C(=C\c2c(OC)c(OC)c(-c3cc4c(s3)-c3cc5c(cc3C4(c3ccc([Mo])cc3)c3ccc([Mo])cc3)-c3sc(-c4c(OC)c(OC)c(/C=C6/SC(=S)N(CC)C6=O)c6nn([Ti])nc46)cc3C5(c3ccc([Mo])cc3)c3ccc([Mo])cc3)c3nn([Ti])nc23)SC1=S,[C][C][C][C][C][C][C][C][=C][Branch2][Ring2][P][C][S][C][Branch2][Ring1][S][C][S][C][Branch1][P][C][S][C][Branch1][C][C][=C][C][=Ring1][=Branch1][C][C][C][C][C][C][=C][C][=Ring1][P][C][C][C][C][C][C][=C][C][=Ring2][Ring1][N][C][C][C][C][C][C][S][C][=Ring2][Ring2][#Branch1][C].[C][C][N][C][=Branch1][C][=O][/C][=Branch2][O][#C][=C][\C][=C][Branch1][Ring1][O][C][C][Branch1][Ring1][O][C][=C][Branch2][#Branch2][C][C][=C][C][=C][Branch1][Ring2][S][Ring1][Branch1][C][=C][C][=C][Branch2][Ring1][S][C][=C][Ring1][=Branch1][C][Ring1][#Branch2][Branch1][N][C][=C][C][=C][Branch1][C][Mo][C][=C][Ring1][#Branch1][C][=C][C][=C][Branch1][C][Mo][C][=C][Ring1][#Branch1][C][S][C][Branch2][Ring2][N][C][=C][Branch1][Ring1][O][C][C][Branch1][Ring1][O][C][=C][Branch1][P][/C][=C][/S][C][=Branch1][C][=S][N][Branch1][Ring1][C][C][C][Ring1][Branch2][=O][C][=N][N][Branch1][C][Ti][N][=C][Ring2][Ring1][Branch2][Ring1][=Branch1][=C][C][=Ring2][Ring1][=N][C][Ring2][Ring2][P][Branch1][N][C][=C][C][=C][Branch1][C][Mo][C][=C][Ring1][#Branch1][C][=C][C][=C][Branch1][C][Mo][C][=C][Ring1][#Branch1][C][=N][N][Branch1][C][Ti][N][=C][Ring2][#Branch1][Ring2][Ring1][=Branch1][S][C][Ring2][#Branch1][O][=S],{CCCCCCc1cc(-c2sc(-c3sc(-c4sc([$])cc4CCCCCC)cc3CCCCCC)cc2CCCCCC)sc1[$]}.CCN1C(=O)/C(=C\c2c(OC)c(OC)c(-c3cc4c(s3)-c3cc5c(cc3C4(c3ccc([Mo])cc3)c3ccc([Mo])cc3)-c3sc(-c4c(OC)c(OC)c(/C=C6/SC(=S)N(CC)C6=O)c6nn([Ti])nc46)cc3C5(c3ccc([Mo])cc3)c3ccc([Mo])cc3)c3nn([Ti])nc23)SC1=S
P3HT,BTA103,-5.057777777777777,-2.989444444444445,-5.21,-3.18,0.5,CF,15.0,_,120.0,5.31,531.0624,0.94,8.56,66.0,CCCCCCc1cc(-c2sc(-c3sc(-c4sc(C)cc4CCCCCC)cc3CCCCCC)cc2CCCCCC)sc1C.CCn1c(=C(C#N)C#N)s/c(=C/c2c(OC)c(OC)c(-c3cc4c(s3)-c3cc5c(cc3C4(c3ccc([Mo])cc3)c3ccc([Mo])cc3)-c3sc(-c4c(OC)c(OC)c(/C=c6/sc(=C(C#N)C#N)n(CC)c6=O)c6nn([Ti])nc46)cc3C5(c3ccc([Mo])cc3)c3ccc([Mo])cc3)c3nn([Ti])nc23)c1=O,[C][C][C][C][C][C][C][C][=C][Branch2][Ring2][P][C][S][C][Branch2][Ring1][S][C][S][C][Branch1][P][C][S][C][Branch1][C][C][=C][C][=Ring1][=Branch1][C][C][C][C][C][C][=C][C][=Ring1][P][C][C][C][C][C][C][=C][C][=Ring2][Ring1][N][C][C][C][C][C][C][S][C][=Ring2][Ring2][#Branch1][C].[C][C][N][C][=Branch1][Branch2][=C][Branch1][Ring1][C][#N][C][#N][S][/C][=Branch2][N][=Branch1][=C][/C][=C][Branch1][Ring1][O][C][C][Branch1][Ring1][O][C][=C][Branch2][#Branch2][=Branch2][C][=C][C][=C][Branch1][Ring2][S][Ring1][Branch1][C][=C][C][=C][Branch2][Ring1][S][C][=C][Ring1][=Branch1][C][Ring1][#Branch2][Branch1][N][C][=C][C][=C][Branch1][C][Mo][C][=C][Ring1][#Branch1][C][=C][C][=C][Branch1][C][Mo][C][=C][Ring1][#Branch1][C][S][C][Branch2][Branch1][Ring1][C][=C][Branch1][Ring1][O][C][C][Branch1][Ring1][O][C][=C][Branch2][Ring1][#Branch1][/C][=C][/S][C][=Branch1][Branch2][=C][Branch1][Ring1][C][#N][C][#N][N][Branch1][Ring1][C][C][C][Ring1][N][=O][C][=N][N][Branch1][C][Ti][N][=C][Ring2][Ring1][N][Ring1][=Branch1][=C][C][=Ring2][Ring1][P][C][Ring2][Branch1][Branch1][Branch1][N][C][=C][C][=C][Branch1][C][Mo][C][=C][Ring1][#Branch1][C][=C][C][=C][Branch1][C][Mo][C][=C][Ring1][#Branch1][C][=N][N][Branch1][C][Ti][N][=C][Ring2][#Branch1][Branch2][Ring1][=Branch1][C][Ring2][Branch2][Ring1][=O],{CCCCCCc1cc(-c2sc(-c3sc(-c4sc([$])cc4CCCCCC)cc3CCCCCC)cc2CCCCCC)sc1[$]}.CCn1c(=C(C#N)C#N)s/c(=C/c2c(OC)c(OC)c(-c3cc4c(s3)-c3cc5c(cc3C4(c3ccc([Mo])cc3)c3ccc([Mo])cc3)-c3sc(-c4c(OC)c(OC)c(/C=c6/sc(=C(C#N)C#N)n(CC)c6=O)c6nn([Ti])nc46)cc3C5(c3ccc([Mo])cc3)c3ccc([Mo])cc3)c3nn([Ti])nc23)c1=O
PTB7-Th,6TIC,-5.21,-3.542368421052632,-5.263333333333333,-3.85,0.667,CB,25.0,DIO,150.0,11.07,1105.626886,0.831,20.11,66.16,Cc1cc2c(-c3ccc([Cr])s3)c3sc(-c4sc(C)c5c(F)c(C(=O)O[Cr])sc45)cc3c(-c3ccc([Cr])s3)c2s1.N#CC(C#N)=C1/C(=C/c2cc3sc4c(c3s2)C(c2ccc([Mo])cc2)(c2ccc([Mo])cc2)c2c-4sc3c4c(sc23)-c2sc3cc(/C=C5\C(=O)c6ccccc6C5=C(C#N)C#N)sc3c2C4(c2ccc([Mo])cc2)c2ccc([Mo])cc2)C(=O)c2ccccc21,[C][C][=C][C][=C][Branch1][O][C][=C][C][=C][Branch1][C][Cr][S][Ring1][=Branch1][C][S][C][Branch2][Ring1][O][C][S][C][Branch1][C][C][=C][C][Branch1][C][F][=C][Branch1][#Branch1][C][=Branch1][C][=O][O][Cr][S][C][=Ring1][=C][Ring1][#Branch2][=C][C][=Ring2][Ring1][Ring1][C][Branch1][O][C][=C][C][=C][Branch1][C][Cr][S][Ring1][=Branch1][=C][Ring2][Ring2][Ring1][S][Ring2][Ring2][=Branch1].[N][#C][C][Branch1][Ring1][C][#N][=C][/C][=Branch2][=Branch2][P][=C][/C][=C][C][S][C][=C][Branch1][#Branch1][C][=Ring1][Branch1][S][Ring1][Branch2][C][Branch1][N][C][=C][C][=C][Branch1][C][Mo][C][=C][Ring1][#Branch1][Branch1][N][C][=C][C][=C][Branch1][C][Mo][C][=C][Ring1][#Branch1][C][=C][Ring2][Ring1][Branch1][S][C][C][=C][Branch1][#Branch1][S][C][Ring1][Branch2][=Ring1][Branch1][C][S][C][C][=C][Branch2][Ring1][=Branch2][/C][=C][\C][=Branch1][C][=O][C][=C][C][=C][C][=C][Ring1][=Branch1][C][Ring1][#Branch2][=C][Branch1][Ring1][C][#N][C][#N][S][C][=Ring2][Ring1][Branch1][C][=Ring2][Ring1][Branch2][C][Ring2][Ring1][=N][Branch1][N][C][=C][C][=C][Branch1][C][Mo][C][=C][Ring1][#Branch1][C][=C][C][=C][Branch1][C][Mo][C][=C][Ring1][#Branch1][C][=Branch1][C][=O][C][=C][C][=C][C][=C][Ring1][=Branch1][Ring2][=Branch1][P],{[$]c1cc2c(-c3ccc([Cr])s3)c3sc(-c4sc([$])c5c(F)c(C(=O)O[Cr])sc45)cc3c(-c3ccc([Cr])s3)c2s1}.N#CC(C#N)=C1/C(=C/c2cc3sc4c(c3s2)C(c2ccc([Mo])cc2)(c2ccc([Mo])cc2)c2c-4sc3c4c(sc23)-c2sc3cc(/C=C5\C(=O)c6ccccc6C5=C(C#N)C#N)sc3c2C4(c2ccc([Mo])cc2)c2ccc([Mo])cc2)C(=O)c2ccccc21