Donor,Acceptor,HOMO_D_eV,LUMO_D_eV,HOMO_A_eV,LUMO_A_eV,D_A_ratio_m_m,solvent,solvent_additive,annealing_temperature,PCE_percent,calc_PCE_percent,Voc_V,Jsc_mA_cm_pow_neg2,FF_percent,DA_SMILES,DA_SELFIES,DA_BigSMILES
PBDT-3T,IT-4F,-5.48,-3.21,-5.66875,-4.060416666666667,0.667,CB,DIO,25.0,1.0,1.01,0.85,3.89,30.43,CCCCC(CC)Cc1cc(C)sc1-c1ccc(-c2sc(-c3cc4c(-c5cc(F)c(CC(CC)CCCC)s5)c5sc(C)cc5c(-c5cc(F)c(CC(CC)CCCC)s5)c4s3)cc2CC(CC)CCCC)s1.CCCCCCc1ccc(C2(c3ccc(CCCCCC)cc3)c3cc4c(cc3-c3sc5cc(/C=C6\C(=O)c7cc(F)c(F)cc7C6=C(C#N)C#N)sc5c32)C(c2ccc(CCCCCC)cc2)(c2ccc(CCCCCC)cc2)c2c-4sc3cc(/C=C4\C(=O)c5cc(F)c(F)cc5C4=C(C#N)C#N)sc23)cc1,[C][C][C][C][C][Branch1][Ring1][C][C][C][C][C][=C][Branch1][C][C][S][C][=Ring1][=Branch1][C][=C][C][=C][Branch2][#Branch1][#C][C][S][C][Branch2][=Branch1][#Branch2][C][=C][C][=C][Branch2][Ring1][#Branch1][C][=C][C][Branch1][C][F][=C][Branch1][O][C][C][Branch1][Ring1][C][C][C][C][C][C][S][Ring1][=C][C][S][C][Branch1][C][C][=C][C][=Ring1][=Branch1][C][Branch2][Ring1][#Branch1][C][=C][C][Branch1][C][F][=C][Branch1][O][C][C][Branch1][Ring1][C][C][C][C][C][C][S][Ring1][=C][=C][Ring2][Ring2][=Branch1][S][Ring2][Ring2][=Branch2][=C][C][=Ring2][Ring2][=C][C][C][Branch1][Ring1][C][C][C][C][C][C][S][Ring2][Branch1][O].[C][C][C][C][C][C][C][=C][C][=C][Branch2][N][Branch2][C][Branch1][P][C][=C][C][=C][Branch1][#Branch1][C][C][C][C][C][C][C][=C][Ring1][N][C][=C][C][=C][Branch2][Branch1][#Branch1][C][=C][Ring1][=Branch1][C][S][C][C][=C][Branch2][Ring1][#C][/C][=C][\C][=Branch1][C][=O][C][=C][C][Branch1][C][F][=C][Branch1][C][F][C][=C][Ring1][Branch2][C][Ring1][N][=C][Branch1][Ring1][C][#N][C][#N][S][C][=Ring2][Ring1][#Branch1][C][=Ring2][Ring1][#Branch2][Ring2][Ring2][=N][C][Branch1][P][C][=C][C][=C][Branch1][#Branch1][C][C][C][C][C][C][C][=C][Ring1][N][Branch1][P][C][=C][C][=C][Branch1][#Branch1][C][C][C][C][C][C][C][=C][Ring1][N][C][=C][Ring2][Branch1][=Branch2][S][C][C][=C][Branch2][Ring1][#C][/C][=C][\C][=Branch1][C][=O][C][=C][C][Branch1][C][F][=C][Branch1][C][F][C][=C][Ring1][Branch2][C][Ring1][N][=C][Branch1][Ring1][C][#N][C][#N][S][C][Ring2][Ring1][#Branch2][=Ring2][Ring1][#Branch1][C][=C][Ring2][Branch2][=Branch1],{CCCCC(CC)Cc1cc([$])sc1-c1ccc(-c2sc(-c3cc4c(-c5cc(F)c(CC(CC)CCCC)s5)c5sc([$])cc5c(-c5cc(F)c(CC(CC)CCCC)s5)c4s3)cc2CC(CC)CCCC)s1}.CCCCCCc1ccc(C2(c3ccc(CCCCCC)cc3)c3cc4c(cc3-c3sc5cc(/C=C6\C(=O)c7cc(F)c(F)cc7C6=C(C#N)C#N)sc5c32)C(c2ccc(CCCCCC)cc2)(c2ccc(CCCCCC)cc2)c2c-4sc3cc(/C=C4\C(=O)c5cc(F)c(F)cc5C4=C(C#N)C#N)sc23)cc1
PBTIBDTT,Si4TIC-F,-5.47,-3.6,-5.58,-4.21,0.667,CB,CN,25.0,10.2,10.2,0.78,18.84,69.4,CCCCCCCCCCc1cc(C)sc1-c1cc2c(=O)n(CC(CCCCCC)CCCCCCCC)c(=O)c3cc(-c4sc(-c5cc6c(-c7ccc(CC(CC)CCCC)s7)c7sc(C)cc7c(-c7ccc(CC(CC)CCCC)s7)c6s5)cc4CCCCCCCCCC)sc3c2s1.CCCCCC[Si]1(CCCCCC)c2cc(C=C3C(=O)c4cc(F)ccc4C3=C(C#N)C#N)sc2-c2sc3c4c(sc3c21)-c1sc(C=C2C(=O)c3cc(F)ccc3C2=C(C#N)C#N)cc1[Si]4(CCCCCC)CCCCCC,[C][C][C][C][C][C][C][C][C][C][C][C][=C][Branch1][C][C][S][C][=Ring1][=Branch1][C][=C][C][C][=Branch1][C][=O][N][Branch2][Ring1][Ring1][C][C][Branch1][#Branch1][C][C][C][C][C][C][C][C][C][C][C][C][C][C][C][=Branch1][C][=O][C][C][=C][Branch2][#Branch1][=Branch2][C][S][C][Branch2][=Branch1][Ring2][C][=C][C][=C][Branch2][Ring1][Ring2][C][=C][C][=C][Branch1][O][C][C][Branch1][Ring1][C][C][C][C][C][C][S][Ring1][=N][C][S][C][Branch1][C][C][=C][C][=Ring1][=Branch1][C][Branch2][Ring1][Ring2][C][=C][C][=C][Branch1][O][C][C][Branch1][Ring1][C][C][C][C][C][C][S][Ring1][=N][=C][Ring2][Ring2][Ring2][S][Ring2][Ring2][#Branch1][=C][C][=Ring2][Ring2][N][C][C][C][C][C][C][C][C][C][C][S][C][=Ring2][Branch1][O][C][=Ring2][#Branch1][C][S][Ring2][#Branch1][Branch1].[C][C][C][C][C][C][Si][Branch1][#Branch1][C][C][C][C][C][C][C][C][=C][Branch2][Ring1][N][C][=C][C][=Branch1][C][=O][C][=C][C][Branch1][C][F][=C][C][=C][Ring1][#Branch1][C][Ring1][O][=C][Branch1][Ring1][C][#N][C][#N][S][C][=Ring2][Ring1][=Branch1][C][S][C][C][=C][Branch1][O][S][C][=Ring1][Branch1][C][=Ring1][Branch2][Ring2][Ring2][Branch1][C][S][C][Branch2][Ring1][N][C][=C][C][=Branch1][C][=O][C][=C][C][Branch1][C][F][=C][C][=C][Ring1][#Branch1][C][Ring1][O][=C][Branch1][Ring1][C][#N][C][#N][=C][C][=Ring2][Ring1][=Branch1][Si][Ring2][Ring1][N][Branch1][#Branch1][C][C][C][C][C][C][C][C][C][C][C][C],{CCCCCCCCCCc1cc([$])sc1-c1cc2c(=O)n(CC(CCCCCC)CCCCCCCC)c(=O)c3cc(-c4sc(-c5cc6c(-c7ccc(CC(CC)CCCC)s7)c7sc([$])cc7c(-c7ccc(CC(CC)CCCC)s7)c6s5)cc4CCCCCCCCCC)sc3c2s1}.CCCCCC[Si]1(CCCCCC)c2cc(C=C3C(=O)c4cc(F)ccc4C3=C(C#N)C#N)sc2-c2sc3c4c(sc3c21)-c1sc(C=C2C(=O)c3cc(F)ccc3C2=C(C#N)C#N)cc1[Si]4(CCCCCC)CCCCCC
PDCBT-2F,IT-4F,-5.6,-3.67,-5.66875,-4.060416666666667,1.0,CF,DIO,25.0,11.6,11.3,0.92,17.8,69.0,CCCCCCCCCCC(CCCCCCCC)COC(=O)c1cc(C)sc1-c1cc(F)c(-c2sc(-c3sc(C)cc3C(=O)OCC(CCCCCCCC)CCCCCCCCCC)cc2F)s1.CCCCCCc1ccc(C2(c3ccc(CCCCCC)cc3)c3cc4c(cc3-c3sc5cc(/C=C6\C(=O)c7cc(F)c(F)cc7C6=C(C#N)C#N)sc5c32)C(c2ccc(CCCCCC)cc2)(c2ccc(CCCCCC)cc2)c2c-4sc3cc(/C=C4\C(=O)c5cc(F)c(F)cc5C4=C(C#N)C#N)sc23)cc1,[C][C][C][C][C][C][C][C][C][C][C][Branch1][=Branch2][C][C][C][C][C][C][C][C][C][O][C][=Branch1][C][=O][C][C][=C][Branch1][C][C][S][C][=Ring1][=Branch1][C][=C][C][Branch1][C][F][=C][Branch2][Branch1][C][C][S][C][Branch2][Ring2][=Branch1][C][S][C][Branch1][C][C][=C][C][=Ring1][=Branch1][C][=Branch1][C][=O][O][C][C][Branch1][=Branch2][C][C][C][C][C][C][C][C][C][C][C][C][C][C][C][C][C][C][=C][C][=Ring2][Ring2][C][F][S][Ring2][Ring2][=Branch2].[C][C][C][C][C][C][C][=C][C][=C][Branch2][N][Branch2][C][Branch1][P][C][=C][C][=C][Branch1][#Branch1][C][C][C][C][C][C][C][=C][Ring1][N][C][=C][C][=C][Branch2][Branch1][#Branch1][C][=C][Ring1][=Branch1][C][S][C][C][=C][Branch2][Ring1][#C][/C][=C][\C][=Branch1][C][=O][C][=C][C][Branch1][C][F][=C][Branch1][C][F][C][=C][Ring1][Branch2][C][Ring1][N][=C][Branch1][Ring1][C][#N][C][#N][S][C][=Ring2][Ring1][#Branch1][C][=Ring2][Ring1][#Branch2][Ring2][Ring2][=N][C][Branch1][P][C][=C][C][=C][Branch1][#Branch1][C][C][C][C][C][C][C][=C][Ring1][N][Branch1][P][C][=C][C][=C][Branch1][#Branch1][C][C][C][C][C][C][C][=C][Ring1][N][C][=C][Ring2][Branch1][=Branch2][S][C][C][=C][Branch2][Ring1][#C][/C][=C][\C][=Branch1][C][=O][C][=C][C][Branch1][C][F][=C][Branch1][C][F][C][=C][Ring1][Branch2][C][Ring1][N][=C][Branch1][Ring1][C][#N][C][#N][S][C][Ring2][Ring1][#Branch2][=Ring2][Ring1][#Branch1][C][=C][Ring2][Branch2][=Branch1],{CCCCCCCCCCC(CCCCCCCC)COC(=O)c1cc([$])sc1-c1cc(F)c(-c2sc(-c3sc([$])cc3C(=O)OCC(CCCCCCCC)CCCCCCCCCC)cc2F)s1}.CCCCCCc1ccc(C2(c3ccc(CCCCCC)cc3)c3cc4c(cc3-c3sc5cc(/C=C6\C(=O)c7cc(F)c(F)cc7C6=C(C#N)C#N)sc5c32)C(c2ccc(CCCCCC)cc2)(c2ccc(CCCCCC)cc2)c2c-4sc3cc(/C=C4\C(=O)c5cc(F)c(F)cc5C4=C(C#N)C#N)sc23)cc1
PTZPF,BT-IC,-5.41,-3.42,-5.3775,-3.8575,1.0,CB,CN,120.0,5.63,5.59,0.93,12.27,49.0,CCCCCCCCC(CCCCCC)Cn1nc2c(-c3ccc(C)s3)c(F)c(F)c(-c3ccc(-c4cc5c(-c6cc(F)c(CC(CC)CCCC)c(F)c6)c6sc(C)cc6c(-c6cc(F)c(CC(CC)CCCC)c(F)c6)c5s4)s3)c2n1.CCCCCCc1ccc(C2(c3ccc(CCCCCC)cc3)c3cc(/C=C4\C(=O)c5ccccc5C4=C(C#N)C#N)sc3-c3sc4c(OCC(CC)CCCC)c5c6c(sc5c(OCC(CC)CCCC)c4c32)-c2sc(/C=C3\C(=O)c4ccccc4C3=C(C#N)C#N)cc2C6(c2ccc(CCCCCC)cc2)c2ccc(CCCCCC)cc2)cc1,[C][C][C][C][C][C][C][C][C][Branch1][#Branch1][C][C][C][C][C][C][C][N][N][=C][C][Branch1][O][C][=C][C][=C][Branch1][C][C][S][Ring1][=Branch1][=C][Branch1][C][F][C][Branch1][C][F][=C][Branch2][#Branch1][=N][C][=C][C][=C][Branch2][#Branch1][C][C][=C][C][=C][Branch2][Ring1][O][C][=C][C][Branch1][C][F][=C][Branch1][O][C][C][Branch1][Ring1][C][C][C][C][C][C][C][Branch1][C][F][=C][Ring1][S][C][S][C][Branch1][C][C][=C][C][=Ring1][=Branch1][C][Branch2][Ring1][O][C][=C][C][Branch1][C][F][=C][Branch1][O][C][C][Branch1][Ring1][C][C][C][C][C][C][C][Branch1][C][F][=C][Ring1][S][=C][Ring2][Ring2][#Branch2][S][Ring2][Ring2][=N][S][Ring2][Branch1][C][C][Ring2][Branch1][S][=N][Ring2][=Branch1][Ring1].[C][C][C][C][C][C][C][=C][C][=C][Branch2][=N][Ring2][C][Branch1][P][C][=C][C][=C][Branch1][#Branch1][C][C][C][C][C][C][C][=C][Ring1][N][C][C][=C][Branch2][Ring1][=Branch2][/C][=C][\C][=Branch1][C][=O][C][=C][C][=C][C][=C][Ring1][=Branch1][C][Ring1][#Branch2][=C][Branch1][Ring1][C][#N][C][#N][S][C][=Ring2][Ring1][Branch1][C][S][C][=C][Branch1][N][O][C][C][Branch1][Ring1][C][C][C][C][C][C][C][C][=C][Branch2][Ring1][=C][S][C][=Ring1][Branch1][C][Branch1][N][O][C][C][Branch1][Ring1][C][C][C][C][C][C][=C][Ring2][Ring1][O][C][=Ring2][Ring1][=C][Ring2][Branch1][S][C][S][C][Branch2][Ring1][=Branch2][/C][=C][\C][=Branch1][C][=O][C][=C][C][=C][C][=C][Ring1][=Branch1][C][Ring1][#Branch2][=C][Branch1][Ring1][C][#N][C][#N][=C][C][=Ring2][Ring1][Branch1][C][Ring2][Ring2][=Branch1][Branch1][P][C][=C][C][=C][Branch1][#Branch1][C][C][C][C][C][C][C][=C][Ring1][N][C][=C][C][=C][Branch1][#Branch1][C][C][C][C][C][C][C][=C][Ring1][N][C][=C][Ring2][=Branch2][Ring2],{CCCCCCCCC(CCCCCC)Cn1nc2c(-c3ccc([$])s3)c(F)c(F)c(-c3ccc(-c4cc5c(-c6cc(F)c(CC(CC)CCCC)c(F)c6)c6sc([$])cc6c(-c6cc(F)c(CC(CC)CCCC)c(F)c6)c5s4)s3)c2n1}.CCCCCCc1ccc(C2(c3ccc(CCCCCC)cc3)c3cc(/C=C4\C(=O)c5ccccc5C4=C(C#N)C#N)sc3-c3sc4c(OCC(CC)CCCC)c5c6c(sc5c(OCC(CC)CCCC)c4c32)-c2sc(/C=C3\C(=O)c4ccccc4C3=C(C#N)C#N)cc2C6(c2ccc(CCCCCC)cc2)c2ccc(CCCCCC)cc2)cc1
PTZPF,BT-F,-5.41,-3.42,-5.57,-3.97,1.0,CB,CN,120.0,7.27,7.18,0.88,16.64,49.0,CCCCCCCCC(CCCCCC)Cn1nc2c(-c3ccc(C)s3)c(F)c(F)c(-c3ccc(-c4cc5c(-c6cc(F)c(CC(CC)CCCC)c(F)c6)c6sc(C)cc6c(-c6cc(F)c(CC(CC)CCCC)c(F)c6)c5s4)s3)c2n1.CCCCCCc1ccc(C2(c3ccc(CCCCCC)cc3)c3cc(C=C4C(=O)c5cc(F)ccc5C4=C(C#N)C#N)sc3-c3sc4c(OCC(CC)CCCC)c5c6c(sc5c(OCC(CC)CCCC)c4c32)-c2sc(C=C3C(=O)c4cc(F)ccc4C3=C(C#N)C#N)cc2C6(c2ccc(CCCCCC)cc2)c2ccc(CCCCCC)cc2)cc1,[C][C][C][C][C][C][C][C][C][Branch1][#Branch1][C][C][C][C][C][C][C][N][N][=C][C][Branch1][O][C][=C][C][=C][Branch1][C][C][S][Ring1][=Branch1][=C][Branch1][C][F][C][Branch1][C][F][=C][Branch2][#Branch1][=N][C][=C][C][=C][Branch2][#Branch1][C][C][=C][C][=C][Branch2][Ring1][O][C][=C][C][Branch1][C][F][=C][Branch1][O][C][C][Branch1][Ring1][C][C][C][C][C][C][C][Branch1][C][F][=C][Ring1][S][C][S][C][Branch1][C][C][=C][C][=Ring1][=Branch1][C][Branch2][Ring1][O][C][=C][C][Branch1][C][F][=C][Branch1][O][C][C][Branch1][Ring1][C][C][C][C][C][C][C][Branch1][C][F][=C][Ring1][S][=C][Ring2][Ring2][#Branch2][S][Ring2][Ring2][=N][S][Ring2][Branch1][C][C][Ring2][Branch1][S][=N][Ring2][=Branch1][Ring1].[C][C][C][C][C][C][C][=C][C][=C][Branch2][=N][#Branch2][C][Branch1][P][C][=C][C][=C][Branch1][#Branch1][C][C][C][C][C][C][C][=C][Ring1][N][C][C][=C][Branch2][Ring1][N][C][=C][C][=Branch1][C][=O][C][=C][C][Branch1][C][F][=C][C][=C][Ring1][#Branch1][C][Ring1][O][=C][Branch1][Ring1][C][#N][C][#N][S][C][=Ring2][Ring1][=Branch1][C][S][C][=C][Branch1][N][O][C][C][Branch1][Ring1][C][C][C][C][C][C][C][C][=C][Branch2][Ring1][=C][S][C][=Ring1][Branch1][C][Branch1][N][O][C][C][Branch1][Ring1][C][C][C][C][C][C][=C][Ring2][Ring1][O][C][=Ring2][Ring1][=C][Ring2][Branch1][P][C][S][C][Branch2][Ring1][N][C][=C][C][=Branch1][C][=O][C][=C][C][Branch1][C][F][=C][C][=C][Ring1][#Branch1][C][Ring1][O][=C][Branch1][Ring1][C][#N][C][#N][=C][C][=Ring2][Ring1][=Branch1][C][Ring2][Ring2][#Branch1][Branch1][P][C][=C][C][=C][Branch1][#Branch1][C][C][C][C][C][C][C][=C][Ring1][N][C][=C][C][=C][Branch1][#Branch1][C][C][C][C][C][C][C][=C][Ring1][N][C][=C][Ring2][=Branch2][=Branch1],{CCCCCCCCC(CCCCCC)Cn1nc2c(-c3ccc([$])s3)c(F)c(F)c(-c3ccc(-c4cc5c(-c6cc(F)c(CC(CC)CCCC)c(F)c6)c6sc([$])cc6c(-c6cc(F)c(CC(CC)CCCC)c(F)c6)c5s4)s3)c2n1}.CCCCCCc1ccc(C2(c3ccc(CCCCCC)cc3)c3cc(C=C4C(=O)c5cc(F)ccc5C4=C(C#N)C#N)sc3-c3sc4c(OCC(CC)CCCC)c5c6c(sc5c(OCC(CC)CCCC)c4c32)-c2sc(C=C3C(=O)c4cc(F)ccc4C3=C(C#N)C#N)cc2C6(c2ccc(CCCCCC)cc2)c2ccc(CCCCCC)cc2)cc1
PTZPF,BT-2F,-5.41,-3.42,-5.6,-4.0,1.0,CB,CN,120.0,8.54,8.59,0.84,19.29,53.0,CCCCCCCCC(CCCCCC)Cn1nc2c(-c3ccc(C)s3)c(F)c(F)c(-c3ccc(-c4cc5c(-c6cc(F)c(CC(CC)CCCC)c(F)c6)c6sc(C)cc6c(-c6cc(F)c(CC(CC)CCCC)c(F)c6)c5s4)s3)c2n1.CCCCCCc1ccc(C2(c3ccc(CCCCCC)cc3)c3cc(/C=C4\C(=O)c5cc(F)c(F)cc5C4=C(C#N)C#N)sc3-c3sc4c(OCC(CC)CCCC)c5c6c(sc5c(OCC(CC)CCCC)c4c32)-c2sc(/C=C3\C(=O)c4cc(F)c(F)cc4C3=C(C#N)C#N)cc2C6(c2ccc(CCCCCC)cc2)c2ccc(CCCCCC)cc2)cc1,[C][C][C][C][C][C][C][C][C][Branch1][#Branch1][C][C][C][C][C][C][C][N][N][=C][C][Branch1][O][C][=C][C][=C][Branch1][C][C][S][Ring1][=Branch1][=C][Branch1][C][F][C][Branch1][C][F][=C][Branch2][#Branch1][=N][C][=C][C][=C][Branch2][#Branch1][C][C][=C][C][=C][Branch2][Ring1][O][C][=C][C][Branch1][C][F][=C][Branch1][O][C][C][Branch1][Ring1][C][C][C][C][C][C][C][Branch1][C][F][=C][Ring1][S][C][S][C][Branch1][C][C][=C][C][=Ring1][=Branch1][C][Branch2][Ring1][O][C][=C][C][Branch1][C][F][=C][Branch1][O][C][C][Branch1][Ring1][C][C][C][C][C][C][C][Branch1][C][F][=C][Ring1][S][=C][Ring2][Ring2][#Branch2][S][Ring2][Ring2][=N][S][Ring2][Branch1][C][C][Ring2][Branch1][S][=N][Ring2][=Branch1][Ring1].[C][C][C][C][C][C][C][=C][C][=C][Branch2][=N][S][C][Branch1][P][C][=C][C][=C][Branch1][#Branch1][C][C][C][C][C][C][C][=C][Ring1][N][C][C][=C][Branch2][Ring1][#C][/C][=C][\C][=Branch1][C][=O][C][=C][C][Branch1][C][F][=C][Branch1][C][F][C][=C][Ring1][Branch2][C][Ring1][N][=C][Branch1][Ring1][C][#N][C][#N][S][C][=Ring2][Ring1][#Branch1][C][S][C][=C][Branch1][N][O][C][C][Branch1][Ring1][C][C][C][C][C][C][C][C][=C][Branch2][Ring1][=C][S][C][=Ring1][Branch1][C][Branch1][N][O][C][C][Branch1][Ring1][C][C][C][C][C][C][=C][Ring2][Ring1][O][C][=Ring2][Ring1][=C][Ring2][=Branch1][C][C][S][C][Branch2][Ring1][#C][/C][=C][\C][=Branch1][C][=O][C][=C][C][Branch1][C][F][=C][Branch1][C][F][C][=C][Ring1][Branch2][C][Ring1][N][=C][Branch1][Ring1][C][#N][C][#N][=C][C][=Ring2][Ring1][#Branch1][C][Ring2][Ring2][Branch2][Branch1][P][C][=C][C][=C][Branch1][#Branch1][C][C][C][C][C][C][C][=C][Ring1][N][C][=C][C][=C][Branch1][#Branch1][C][C][C][C][C][C][C][=C][Ring1][N][C][=C][Ring2][=Branch2][Branch2],{CCCCCCCCC(CCCCCC)Cn1nc2c(-c3ccc([$])s3)c(F)c(F)c(-c3ccc(-c4cc5c(-c6cc(F)c(CC(CC)CCCC)c(F)c6)c6sc([$])cc6c(-c6cc(F)c(CC(CC)CCCC)c(F)c6)c5s4)s3)c2n1}.CCCCCCc1ccc(C2(c3ccc(CCCCCC)cc3)c3cc(/C=C4\C(=O)c5cc(F)c(F)cc5C4=C(C#N)C#N)sc3-c3sc4c(OCC(CC)CCCC)c5c6c(sc5c(OCC(CC)CCCC)c4c32)-c2sc(/C=C3\C(=O)c4cc(F)c(F)cc4C3=C(C#N)C#N)cc2C6(c2ccc(CCCCCC)cc2)c2ccc(CCCCCC)cc2)cc1
P3HT,Qx1,-5.057777777777777,-2.989444444444445,-5.42,-3.6,1.667,o-DCB,CN,100.0,4.03,4.03,1.0,6.02,67.0,CCCCCCc1cc(-c2sc(-c3sc(-c4sc(C)cc4CCCCCC)cc3CCCCCC)cc2CCCCCC)sc1C.CCCCCCc1ccc(C2(c3ccc(CCCCCC)cc3)c3cc4c(cc3-c3sc(-c5ccc(C=O)c6nc(-c7ccccc7)c(-c7ccccc7)nc56)cc32)C(c2ccc(CCCCCC)cc2)(c2ccc(CCCCCC)cc2)c2cc(-c3ccc(C=O)c5nc(-c6ccccc6)c(-c6ccccc6)nc35)sc2-4)cc1,[C][C][C][C][C][C][C][C][=C][Branch2][Ring2][P][C][S][C][Branch2][Ring1][S][C][S][C][Branch1][P][C][S][C][Branch1][C][C][=C][C][=Ring1][=Branch1][C][C][C][C][C][C][=C][C][=Ring1][P][C][C][C][C][C][C][=C][C][=Ring2][Ring1][N][C][C][C][C][C][C][S][C][=Ring2][Ring2][#Branch1][C].[C][C][C][C][C][C][C][=C][C][=C][Branch2][N][S][C][Branch1][P][C][=C][C][=C][Branch1][#Branch1][C][C][C][C][C][C][C][=C][Ring1][N][C][=C][C][=C][Branch2][Branch1][O][C][=C][Ring1][=Branch1][C][S][C][Branch2][Ring2][=Branch2][C][=C][C][=C][Branch1][Ring1][C][=O][C][=N][C][Branch1][=Branch2][C][=C][C][=C][C][=C][Ring1][=Branch1][=C][Branch1][=Branch2][C][=C][C][=C][C][=C][Ring1][=Branch1][N][=C][Ring2][Ring1][Branch2][Ring2][Ring1][C][=C][C][=Ring2][Ring1][=N][Ring2][Ring2][S][C][Branch1][P][C][=C][C][=C][Branch1][#Branch1][C][C][C][C][C][C][C][=C][Ring1][N][Branch1][P][C][=C][C][=C][Branch1][#Branch1][C][C][C][C][C][C][C][=C][Ring1][N][C][C][=C][Branch2][Ring2][=Branch2][C][=C][C][=C][Branch1][Ring1][C][=O][C][=N][C][Branch1][=Branch2][C][=C][C][=C][C][=C][Ring1][=Branch1][=C][Branch1][=Branch2][C][=C][C][=C][C][=C][Ring1][=Branch1][N][=C][Ring2][Ring1][Branch2][Ring2][Ring1][C][S][C][=Ring2][Ring1][=N][Ring2][#Branch1][#Branch1][C][=C][Ring2][Branch2][N],{CCCCCCc1cc(-c2sc(-c3sc(-c4sc([$])cc4CCCCCC)cc3CCCCCC)cc2CCCCCC)sc1[$]}.CCCCCCc1ccc(C2(c3ccc(CCCCCC)cc3)c3cc4c(cc3-c3sc(-c5ccc(C=O)c6nc(-c7ccccc7)c(-c7ccccc7)nc56)cc32)C(c2ccc(CCCCCC)cc2)(c2ccc(CCCCCC)cc2)c2cc(-c3ccc(C=O)c5nc(-c6ccccc6)c(-c6ccccc6)nc35)sc2-4)cc1
P3HT,Qx1b,-5.057777777777777,-2.989444444444445,-5.35,-3.66,0.8,o-DCB,CN,100.0,4.81,4.81,0.95,7.34,69.0,CCCCCCc1cc(-c2sc(-c3sc(-c4sc(C)cc4CCCCCC)cc3CCCCCC)cc2CCCCCC)sc1C.CCCCCCC1(CCCCCC)c2cc3c(cc2-c2sc(-c4ccc(C=O)c5nc(-c6ccccc6)c(-c6ccccc6)nc45)cc21)C(CCCCCC)(CCCCCC)c1cc(-c2ccc(C=O)c4nc(-c5ccccc5)c(-c5ccccc5)nc24)sc1-3,[C][C][C][C][C][C][C][C][=C][Branch2][Ring2][P][C][S][C][Branch2][Ring1][S][C][S][C][Branch1][P][C][S][C][Branch1][C][C][=C][C][=Ring1][=Branch1][C][C][C][C][C][C][=C][C][=Ring1][P][C][C][C][C][C][C][=C][C][=Ring2][Ring1][N][C][C][C][C][C][C][S][C][=Ring2][Ring2][#Branch1][C].[C][C][C][C][C][C][C][Branch1][#Branch1][C][C][C][C][C][C][C][=C][C][=C][Branch2][Branch1][O][C][=C][Ring1][=Branch1][C][S][C][Branch2][Ring2][=Branch2][C][=C][C][=C][Branch1][Ring1][C][=O][C][=N][C][Branch1][=Branch2][C][=C][C][=C][C][=C][Ring1][=Branch1][=C][Branch1][=Branch2][C][=C][C][=C][C][=C][Ring1][=Branch1][N][=C][Ring2][Ring1][Branch2][Ring2][Ring1][C][=C][C][=Ring2][Ring1][=N][Ring2][Ring2][#Branch2][C][Branch1][#Branch1][C][C][C][C][C][C][Branch1][#Branch1][C][C][C][C][C][C][C][C][=C][Branch2][Ring2][=Branch2][C][=C][C][=C][Branch1][Ring1][C][=O][C][=N][C][Branch1][=Branch2][C][=C][C][=C][C][=C][Ring1][=Branch1][=C][Branch1][=Branch2][C][=C][C][=C][C][=C][Ring1][=Branch1][N][=C][Ring2][Ring1][Branch2][Ring2][Ring1][C][S][C][=Ring2][Ring1][=N][Ring2][=Branch1][O],{CCCCCCc1cc(-c2sc(-c3sc(-c4sc([$])cc4CCCCCC)cc3CCCCCC)cc2CCCCCC)sc1[$]}.CCCCCCC1(CCCCCC)c2cc3c(cc2-c2sc(-c4ccc(C=O)c5nc(-c6ccccc6)c(-c6ccccc6)nc45)cc21)C(CCCCCC)(CCCCCC)c1cc(-c2ccc(C=O)c4nc(-c5ccccc5)c(-c5ccccc5)nc24)sc1-3
PBDB-T,F-F,-5.297777777777778,-3.4170000000000003,-5.72,-4.13,0.833,CB,DIO,25.0,10.85,10.85,0.88,17.36,71.0,CCCCC(CC)Cc1ccc(-c2c3cc(-c4ccc(-c5sc(-c6ccc(C)s6)c6c5C(=O)c5c(CC(CC)CCCC)sc(CC(CC)CCCC)c5C6=O)s4)sc3c(-c3ccc(CC(CC)CCCC)s3)c3cc(C)sc23)s1.CCCCCCCCC1(CCCCCCCC)c2cc3c(cc2-c2cc4c(cc21)-c1sc(C=C2C(=O)c5cc(F)ccc5C2=C(C#N)C#N)cc1C4(CCCCCCCC)CCCCCCCC)C(CCCCCCCC)(CCCCCCCC)c1cc(C=C2C(=O)c4cc(F)ccc4C2=C(C#N)C#N)sc1-3,[C][C][C][C][C][Branch1][Ring1][C][C][C][C][=C][C][=C][Branch2][=Branch2][Branch2][C][=C][C][=C][Branch2][=Branch1][Branch2][C][=C][C][=C][Branch2][Branch1][=N][C][S][C][Branch1][O][C][=C][C][=C][Branch1][C][C][S][Ring1][=Branch1][=C][C][=Ring1][O][C][=Branch1][C][=O][C][=C][Branch1][O][C][C][Branch1][Ring1][C][C][C][C][C][C][S][C][Branch1][O][C][C][Branch1][Ring1][C][C][C][C][C][C][=C][Ring2][Ring1][Branch1][C][Ring2][Ring1][#Branch2][=O][S][Ring2][Ring2][=Branch2][S][C][Ring2][Ring2][=C][=C][Branch2][Ring1][Ring2][C][=C][C][=C][Branch1][O][C][C][Branch1][Ring1][C][C][C][C][C][C][S][Ring1][=N][C][C][=C][Branch1][C][C][S][C][Ring2][=Branch1][Ring1][=Ring1][=Branch1][S][Ring2][=Branch1][Branch2].[C][C][C][C][C][C][C][C][C][Branch1][=Branch2][C][C][C][C][C][C][C][C][C][=C][C][=C][Branch2][=Branch1][=C][C][=C][Ring1][=Branch1][C][=C][C][=C][Branch1][Branch2][C][=C][Ring1][=Branch1][Ring2][Ring1][Branch1][C][S][C][Branch2][Ring1][N][C][=C][C][=Branch1][C][=O][C][=C][C][Branch1][C][F][=C][C][=C][Ring1][#Branch1][C][Ring1][O][=C][Branch1][Ring1][C][#N][C][#N][=C][C][=Ring2][Ring1][=Branch1][C][Ring2][Ring1][O][Branch1][=Branch2][C][C][C][C][C][C][C][C][C][C][C][C][C][C][C][C][C][Branch1][=Branch2][C][C][C][C][C][C][C][C][Branch1][=Branch2][C][C][C][C][C][C][C][C][C][C][=C][Branch2][Ring1][N][C][=C][C][=Branch1][C][=O][C][=C][C][Branch1][C][F][=C][C][=C][Ring1][#Branch1][C][Ring1][O][=C][Branch1][Ring1][C][#N][C][#N][S][C][=Ring2][Ring1][=Branch1][Ring2][#Branch1][Branch2],{CCCCC(CC)Cc1ccc(-c2c3cc(-c4ccc(-c5sc(-c6ccc([$])s6)c6c5C(=O)c5c(CC(CC)CCCC)sc(CC(CC)CCCC)c5C6=O)s4)sc3c(-c3ccc(CC(CC)CCCC)s3)c3cc([$])sc23)s1}.CCCCCCCCC1(CCCCCCCC)c2cc3c(cc2-c2cc4c(cc21)-c1sc(C=C2C(=O)c5cc(F)ccc5C2=C(C#N)C#N)cc1C4(CCCCCCCC)CCCCCCCC)C(CCCCCCCC)(CCCCCCCC)c1cc(C=C2C(=O)c4cc(F)ccc4C2=C(C#N)C#N)sc1-3