Donor,Acceptor,HOMO_D_eV,LUMO_D_eV,HOMO_A_eV,LUMO_A_eV,D_A_ratio_m_m,solvent,total_solids_conc_mg_mL,solvent_additive,annealing_temperature,PCE_percent,calc_PCE_percent,Voc_V,Jsc_mA_cm_pow_neg2,FF_percent,DA_SMILES,DA_SELFIES,DA_BigSMILES
PBDB-T,DTNIF,-5.297777777777778,-3.4170000000000003,-5.82,-3.92,1.0,CB,18.0,_,25.0,8.73,868.43718,0.9,13.26,72.77,Cc1ccc(-c2sc(-c3ccc(-c4cc5c(-c6ccc([Cr])s6)c6sc(C)cc6c(-c6ccc([Cr])s6)c5s4)s3)c3c2C(=O)c2c([Cr])sc([Cr])c2C3=O)s1.N#CC(C#N)=C1C(=Cc2cc3c(s2)-c2c(ccc4c5c(ccc24)C([Cr])([Cr])c2cc(C=C4C(=O)c6cc(F)ccc6C4=C(C#N)C#N)sc2-5)C3([Cr])[Cr])C(=O)c2cc(F)ccc21,[C][C][=C][C][=C][Branch2][#Branch1][O][C][S][C][Branch2][Branch1][O][C][=C][C][=C][Branch2][Ring2][S][C][=C][C][=C][Branch1][O][C][=C][C][=C][Branch1][C][Cr][S][Ring1][=Branch1][C][S][C][Branch1][C][C][=C][C][=Ring1][=Branch1][C][Branch1][O][C][=C][C][=C][Branch1][C][Cr][S][Ring1][=Branch1][=C][Ring2][Ring1][=Branch1][S][Ring2][Ring1][=Branch2][S][Ring2][Ring1][=C][=C][C][=Ring2][Ring2][Ring1][C][=Branch1][C][=O][C][=C][Branch1][C][Cr][S][C][Branch1][C][Cr][=C][Ring1][#Branch1][C][Ring1][N][=O][S][Ring2][Branch1][Ring1].[N][#C][C][Branch1][Ring1][C][#N][=C][C][=Branch2][#Branch1][=Branch1][=C][C][=C][C][=C][Branch1][Ring2][S][Ring1][Branch1][C][=C][Branch2][Branch1][#C][C][=C][C][=C][C][=Branch1][Branch2][=C][C][=C][Ring1][#Branch2][Ring1][=Branch1][C][Branch1][C][Cr][Branch1][C][Cr][C][C][=C][Branch2][Ring1][N][C][=C][C][=Branch1][C][=O][C][=C][C][Branch1][C][F][=C][C][=C][Ring1][#Branch1][C][Ring1][O][=C][Branch1][Ring1][C][#N][C][#N][S][C][=Ring2][Ring1][=Branch1][Ring2][Ring1][=C][C][Ring2][Ring2][#Branch1][Branch1][C][Cr][Cr][C][=Branch1][C][=O][C][=C][C][Branch1][C][F][=C][C][=C][Ring1][#Branch1][Ring2][Branch1][#Branch1],{[$]c1ccc(-c2sc(-c3ccc(-c4cc5c(-c6ccc([Cr])s6)c6sc([$])cc6c(-c6ccc([Cr])s6)c5s4)s3)c3c2C(=O)c2c([Cr])sc([Cr])c2C3=O)s1}.N#CC(C#N)=C1C(=Cc2cc3c(s2)-c2c(ccc4c5c(ccc24)C([Cr])([Cr])c2cc(C=C4C(=O)c6cc(F)ccc6C4=C(C#N)C#N)sc2-5)C3([Cr])[Cr])C(=O)c2cc(F)ccc21
PBDB-T,DTNSF,-5.297777777777778,-3.4170000000000003,-5.52,-4.0,1.0,CB,18.0,_,25.0,7.15,728.128296,0.92,14.49,54.62,Cc1ccc(-c2sc(-c3ccc(-c4cc5c(-c6ccc([Cr])s6)c6sc(C)cc6c(-c6ccc([Cr])s6)c5s4)s3)c3c2C(=O)c2c([Cr])sc([Cr])c2C3=O)s1.N#CC(C#N)=C1C(=Cc2ccc(-c3cc4c(s3)-c3c(ccc5c6c(ccc35)C([Cr])([Cr])c3cc(-c5ccc(C=C7C(=O)c8cc(F)ccc8C7=C(C#N)C#N)s5)sc3-6)C4([Cr])[Cr])s2)C(=O)c2cc(F)ccc21,[C][C][=C][C][=C][Branch2][#Branch1][O][C][S][C][Branch2][Branch1][O][C][=C][C][=C][Branch2][Ring2][S][C][=C][C][=C][Branch1][O][C][=C][C][=C][Branch1][C][Cr][S][Ring1][=Branch1][C][S][C][Branch1][C][C][=C][C][=Ring1][=Branch1][C][Branch1][O][C][=C][C][=C][Branch1][C][Cr][S][Ring1][=Branch1][=C][Ring2][Ring1][=Branch1][S][Ring2][Ring1][=Branch2][S][Ring2][Ring1][=C][=C][C][=Ring2][Ring2][Ring1][C][=Branch1][C][=O][C][=C][Branch1][C][Cr][S][C][Branch1][C][Cr][=C][Ring1][#Branch1][C][Ring1][N][=O][S][Ring2][Branch1][Ring1].[N][#C][C][Branch1][Ring1][C][#N][=C][C][=Branch2][Branch2][N][=C][C][=C][C][=C][Branch2][#Branch1][S][C][=C][C][=C][Branch1][Ring2][S][Ring1][Branch1][C][=C][Branch2][=Branch1][#Branch2][C][=C][C][=C][C][=Branch1][Branch2][=C][C][=C][Ring1][#Branch2][Ring1][=Branch1][C][Branch1][C][Cr][Branch1][C][Cr][C][C][=C][Branch2][Ring2][#Branch1][C][=C][C][=C][Branch2][Ring1][N][C][=C][C][=Branch1][C][=O][C][=C][C][Branch1][C][F][=C][C][=C][Ring1][#Branch1][C][Ring1][O][=C][Branch1][Ring1][C][#N][C][#N][S][Ring2][Ring1][=Branch1][S][C][=Ring2][Ring1][O][Ring2][Ring2][Ring1][C][Ring2][Ring2][N][Branch1][C][Cr][Cr][S][Ring2][Branch1][Branch1][C][=Branch1][C][=O][C][=C][C][Branch1][C][F][=C][C][=C][Ring1][#Branch1][Ring2][Branch1][P],{[$]c1ccc(-c2sc(-c3ccc(-c4cc5c(-c6ccc([Cr])s6)c6sc([$])cc6c(-c6ccc([Cr])s6)c5s4)s3)c3c2C(=O)c2c([Cr])sc([Cr])c2C3=O)s1}.N#CC(C#N)=C1C(=Cc2ccc(-c3cc4c(s3)-c3c(ccc5c6c(ccc35)C([Cr])([Cr])c3cc(-c5ccc(C=C7C(=O)c8cc(F)ccc8C7=C(C#N)C#N)s5)sc3-6)C4([Cr])[Cr])s2)C(=O)c2cc(F)ccc21
PBTIBDTT,Si4TIC-F,-5.47,-3.6,-5.58,-4.21,0.667,CB,12.5,CN,25.0,10.2,1019.84688,0.78,18.84,69.4,Cc1cc([Tc])c(-c2cc3c(=O)n([Sc])c(=O)c4cc(-c5sc(-c6cc7c(-c8ccc([Cr])s8)c8sc(C)cc8c(-c8ccc([Cr])s8)c7s6)cc5[Tc])sc4c3s2)s1.N#CC(C#N)=C1C(=Cc2cc3c(s2)-c2sc4c5c(sc4c2[Si]3([Mo])[Mo])-c2sc(C=C3C(=O)c4cc(F)ccc4C3=C(C#N)C#N)cc2[Si]5([Mo])[Mo])C(=O)c2cc(F)ccc21,[C][C][=C][C][Branch1][C][Tc][=C][Branch2][#Branch1][=C][C][=C][C][C][=Branch1][C][=O][N][Branch1][C][Sc][C][=Branch1][C][=O][C][C][=C][Branch2][Branch1][N][C][S][C][Branch2][Ring2][S][C][=C][C][=C][Branch1][O][C][=C][C][=C][Branch1][C][Cr][S][Ring1][=Branch1][C][S][C][Branch1][C][C][=C][C][=Ring1][=Branch1][C][Branch1][O][C][=C][C][=C][Branch1][C][Cr][S][Ring1][=Branch1][=C][Ring2][Ring1][=Branch1][S][Ring2][Ring1][=Branch2][=C][C][=Ring2][Ring1][=C][Tc][S][C][=Ring2][Ring2][Ring2][C][=Ring2][Ring2][N][S][Ring2][Ring2][#C][S][Ring2][Branch1][Branch1].[N][#C][C][Branch1][Ring1][C][#N][=C][C][=Branch2][=Branch1][=C][=C][C][=C][C][=C][Branch1][Ring2][S][Ring1][Branch1][C][S][C][C][=C][Branch1][#C][S][C][=Ring1][Branch1][C][=Ring1][Branch2][Si][Ring1][N][Branch1][C][Mo][Mo][C][S][C][Branch2][Ring1][N][C][=C][C][=Branch1][C][=O][C][=C][C][Branch1][C][F][=C][C][=C][Ring1][#Branch1][C][Ring1][O][=C][Branch1][Ring1][C][#N][C][#N][=C][C][=Ring2][Ring1][=Branch1][Si][Ring2][Ring1][#C][Branch1][C][Mo][Mo][C][=Branch1][C][=O][C][=C][C][Branch1][C][F][=C][C][=C][Ring1][#Branch1][Ring2][Branch1][Branch1],{[$]c1cc([Tc])c(-c2cc3c(=O)n([Sc])c(=O)c4cc(-c5sc(-c6cc7c(-c8ccc([Cr])s8)c8sc([$])cc8c(-c8ccc([Cr])s8)c7s6)cc5[Tc])sc4c3s2)s1}.N#CC(C#N)=C1C(=Cc2cc3c(s2)-c2sc4c5c(sc4c2[Si]3([Mo])[Mo])-c2sc(C=C3C(=O)c4cc(F)ccc4C3=C(C#N)C#N)cc2[Si]5([Mo])[Mo])C(=O)c2cc(F)ccc21
PDCBT-2F,IT-4F,-5.6,-3.67,-5.670384615384615,-4.058076923076923,1.0,CF,16.0,DIO,25.0,11.6,1129.944,0.92,17.8,69.0,Cc1cc(C(=O)O[Fe])c(-c2cc(F)c(-c3sc(-c4sc(C)cc4C(=O)O[Fe])cc3F)s2)s1.N#CC(C#N)=C1/C(=C/c2cc3sc4c(c3s2)C(c2ccc([Mo])cc2)(c2ccc([Mo])cc2)c2cc3c(cc2-4)C(c2ccc([Mo])cc2)(c2ccc([Mo])cc2)c2c-3sc3cc(/C=C4\C(=O)c5cc(F)c(F)cc5C4=C(C#N)C#N)sc23)C(=O)c2cc(F)c(F)cc21,[C][C][=C][C][Branch1][#Branch1][C][=Branch1][C][=O][O][Fe][=C][Branch2][Ring2][=Branch2][C][=C][C][Branch1][C][F][=C][Branch2][Ring1][O][C][S][C][Branch1][P][C][S][C][Branch1][C][C][=C][C][=Ring1][=Branch1][C][=Branch1][C][=O][O][Fe][=C][C][=Ring1][#C][F][S][Ring2][Ring1][=Branch1][S][Ring2][Ring1][#C].[N][#C][C][Branch1][Ring1][C][#N][=C][/C][=Branch2][#Branch2][Branch1][=C][/C][=C][C][S][C][=C][Branch1][#Branch1][C][=Ring1][Branch1][S][Ring1][Branch2][C][Branch1][N][C][=C][C][=C][Branch1][C][Mo][C][=C][Ring1][#Branch1][Branch1][N][C][=C][C][=C][Branch1][C][Mo][C][=C][Ring1][#Branch1][C][=C][C][=C][Branch1][Branch2][C][=C][Ring1][=Branch1][Ring2][Ring1][=Branch2][C][Branch1][N][C][=C][C][=C][Branch1][C][Mo][C][=C][Ring1][#Branch1][Branch1][N][C][=C][C][=C][Branch1][C][Mo][C][=C][Ring1][#Branch1][C][=C][Ring2][Ring1][Branch1][S][C][C][=C][Branch2][Ring1][#C][/C][=C][\C][=Branch1][C][=O][C][=C][C][Branch1][C][F][=C][Branch1][C][F][C][=C][Ring1][Branch2][C][Ring1][N][=C][Branch1][Ring1][C][#N][C][#N][S][C][Ring2][Ring1][#Branch2][=Ring2][Ring1][#Branch1][C][=Branch1][C][=O][C][=C][C][Branch1][C][F][=C][Branch1][C][F][C][=C][Ring1][Branch2][Ring2][#Branch1][Ring1],{[$]c1cc(C(=O)O[Fe])c(-c2cc(F)c(-c3sc(-c4sc([$])cc4C(=O)O[Fe])cc3F)s2)s1}.N#CC(C#N)=C1/C(=C/c2cc3sc4c(c3s2)C(c2ccc([Mo])cc2)(c2ccc([Mo])cc2)c2cc3c(cc2-4)C(c2ccc([Mo])cc2)(c2ccc([Mo])cc2)c2c-3sc3cc(/C=C4\C(=O)c5cc(F)c(F)cc5C4=C(C#N)C#N)sc23)C(=O)c2cc(F)c(F)cc21
PTB7-Th,IDT-FBTR,-5.21,-3.542368421052632,-5.47,-3.65,1.5,o-DCB,20.0,_,25.0,7.01,699.68073,1.02,12.95,52.97,Cc1cc2c(-c3ccc([Cr])s3)c3sc(-c4sc(C)c5c(F)c(C(=O)O[Cr])sc45)cc3c(-c3ccc([Cr])s3)c2s1.CCCCCCCCn1c(=C(C#N)C#N)sc(=Cc2ccc(-c3c(F)cc(-c4cc5c(s4)-c4cc6c(cc4C5(c4ccc(CCCCCC)cc4)c4ccc(CCCCCC)cc4)-c4sc(-c5cc(F)c(-c7ccc(C=c8sc(=C(C#N)C#N)n(CCCCCCCC)c8=O)s7)c7nsnc57)cc4C6(c4ccc(CCCCCC)cc4)c4ccc(CCCCCC)cc4)c4nsnc34)s2)c1=O,[C][C][=C][C][=C][Branch1][O][C][=C][C][=C][Branch1][C][Cr][S][Ring1][=Branch1][C][S][C][Branch2][Ring1][O][C][S][C][Branch1][C][C][=C][C][Branch1][C][F][=C][Branch1][#Branch1][C][=Branch1][C][=O][O][Cr][S][C][=Ring1][=C][Ring1][#Branch2][=C][C][=Ring2][Ring1][Ring1][C][Branch1][O][C][=C][C][=C][Branch1][C][Cr][S][Ring1][=Branch1][=C][Ring2][Ring2][Ring1][S][Ring2][Ring2][=Branch1].[C][C][C][C][C][C][C][C][N][C][=Branch1][Branch2][=C][Branch1][Ring1][C][#N][C][#N][S][C][=Branch2][=C][#Branch1][=C][C][=C][C][=C][Branch2][=N][O][C][=C][Branch1][C][F][C][=C][Branch2][N][#Branch1][C][=C][C][=C][Branch1][Ring2][S][Ring1][Branch1][C][=C][C][=C][Branch2][Ring2][#Branch2][C][=C][Ring1][=Branch1][C][Ring1][#Branch2][Branch1][P][C][=C][C][=C][Branch1][#Branch1][C][C][C][C][C][C][C][=C][Ring1][N][C][=C][C][=C][Branch1][#Branch1][C][C][C][C][C][C][C][=C][Ring1][N][C][S][C][Branch2][Branch1][=N][C][=C][C][Branch1][C][F][=C][Branch2][Ring2][=Branch2][C][=C][C][=C][Branch2][Ring1][=C][C][=C][S][C][=Branch1][Branch2][=C][Branch1][Ring1][C][#N][C][#N][N][Branch1][=Branch2][C][C][C][C][C][C][C][C][C][Ring2][Ring1][C][=O][S][Ring2][Ring1][=Branch2][C][=N][S][N][=C][Ring2][Ring2][Ring1][Ring1][Branch1][=C][C][=Ring2][Ring2][Branch2][C][Ring2][=Branch1][=Branch1][Branch1][P][C][=C][C][=C][Branch1][#Branch1][C][C][C][C][C][C][C][=C][Ring1][N][C][=C][C][=C][Branch1][#Branch1][C][C][C][C][C][C][C][=C][Ring1][N][C][=N][S][N][=C][Ring2][Branch2][#C][Ring1][Branch1][S][Ring2][=Branch2][Ring2][C][Ring2][=Branch2][#C][=O],{[$]c1cc2c(-c3ccc([Cr])s3)c3sc(-c4sc([$])c5c(F)c(C(=O)O[Cr])sc45)cc3c(-c3ccc([Cr])s3)c2s1}.CCCCCCCCn1c(=C(C#N)C#N)sc(=Cc2ccc(-c3c(F)cc(-c4cc5c(s4)-c4cc6c(cc4C5(c4ccc(CCCCCC)cc4)c4ccc(CCCCCC)cc4)-c4sc(-c5cc(F)c(-c7ccc(C=c8sc(=C(C#N)C#N)n(CCCCCCCC)c8=O)s7)c7nsnc57)cc4C6(c4ccc(CCCCCC)cc4)c4ccc(CCCCCC)cc4)c4nsnc34)s2)c1=O
PBT1-C-MW,ITCPTC,-5.46,-3.4,-5.5888888888888895,-3.836666666666667,1.0,CF,16.0,_,100.0,12.8,1277.272,0.94,17.2,79.0,CCCCCCC(CCCC)Cc1ccc(Cc2c3cc(-c4ccc(-c5sc(-c6ccc(C)s6)c6c5C(=O)c5c(CC(CC)CCCC)sc(CC(CC)CCCC)c5C6=O)s4)sc3c(Cc3ccc(CC(CCCC)CCCCCC)cc3)c3cc(C)sc23)cc1.N#CC(C#N)=C1/C(=C/c2cc3sc4c(c3s2)C(c2ccc([Mo])cc2)(c2ccc([Mo])cc2)c2cc3c(cc2-4)C(c2ccc([Mo])cc2)(c2ccc([Mo])cc2)c2c-3sc3cc(/C=C4\C(=O)c5cscc5C4=C(C#N)C#N)sc23)C(=O)c2cscc21,[C][C][C][C][C][C][C][Branch1][Branch1][C][C][C][C][C][C][=C][C][=C][Branch2][=Branch2][S][C][C][=C][C][=C][Branch2][=Branch1][Branch2][C][=C][C][=C][Branch2][Branch1][=N][C][S][C][Branch1][O][C][=C][C][=C][Branch1][C][C][S][Ring1][=Branch1][=C][C][=Ring1][O][C][=Branch1][C][=O][C][=C][Branch1][O][C][C][Branch1][Ring1][C][C][C][C][C][C][S][C][Branch1][O][C][C][Branch1][Ring1][C][C][C][C][C][C][=C][Ring2][Ring1][Branch1][C][Ring2][Ring1][#Branch2][=O][S][Ring2][Ring2][=Branch2][S][C][Ring2][Ring2][=C][=C][Branch2][Ring1][O][C][C][=C][C][=C][Branch1][#C][C][C][Branch1][Branch1][C][C][C][C][C][C][C][C][C][C][C][=C][Ring2][Ring1][C][C][C][=C][Branch1][C][C][S][C][Ring2][=Branch1][=Branch2][=Ring1][=Branch1][C][=C][Ring2][=Branch1][S].[N][#C][C][Branch1][Ring1][C][#N][=C][/C][=Branch2][=Branch2][=C][=C][/C][=C][C][S][C][=C][Branch1][#Branch1][C][=Ring1][Branch1][S][Ring1][Branch2][C][Branch1][N][C][=C][C][=C][Branch1][C][Mo][C][=C][Ring1][#Branch1][Branch1][N][C][=C][C][=C][Branch1][C][Mo][C][=C][Ring1][#Branch1][C][=C][C][=C][Branch1][Branch2][C][=C][Ring1][=Branch1][Ring2][Ring1][=Branch2][C][Branch1][N][C][=C][C][=C][Branch1][C][Mo][C][=C][Ring1][#Branch1][Branch1][N][C][=C][C][=C][Branch1][C][Mo][C][=C][Ring1][#Branch1][C][=C][Ring2][Ring1][Branch1][S][C][C][=C][Branch2][Ring1][Branch2][/C][=C][\C][=Branch1][C][=O][C][=C][S][C][=C][Ring1][Branch1][C][Ring1][=Branch2][=C][Branch1][Ring1][C][#N][C][#N][S][C][Ring2][Ring1][#Branch1][=Ring2][Ring1][Ring2][C][=Branch1][C][=O][C][=C][S][C][=C][Ring1][Branch1][Ring2][=Branch1][=N],{CCCCCCC(CCCC)Cc1ccc(Cc2c3cc(-c4ccc(-c5sc(-c6ccc([$])s6)c6c5C(=O)c5c(CC(CC)CCCC)sc(CC(CC)CCCC)c5C6=O)s4)sc3c(Cc3ccc(CC(CCCC)CCCCCC)cc3)c3cc([$])sc23)cc1}.N#CC(C#N)=C1/C(=C/c2cc3sc4c(c3s2)C(c2ccc([Mo])cc2)(c2ccc([Mo])cc2)c2cc3c(cc2-4)C(c2ccc([Mo])cc2)(c2ccc([Mo])cc2)c2c-3sc3cc(/C=C4\C(=O)c5cscc5C4=C(C#N)C#N)sc23)C(=O)c2cscc21
PBDTTz-BP,ITIC,-5.025,-2.97,-5.574285714285715,-3.9143137254901954,1.0,CB,19.5,_,25.0,8.03,802.872,0.81,17.7,56.0,Cc1ccc(-c2c(F)c(F)c(-c3ccc(-c4cc5c(-c6ccc(-c7ccc(O[Sc])cc7)cc6)c6sc(C)cc6c(-c6ccc(-c7ccc(O[Sc])cc7)cc6)c5s4)s3)c3nn([Co])nc23)s1.N#CC(C#N)=C1/C(=C/c2cc3sc4c(c3s2)C(c2ccc([Mo])cc2)(c2ccc([Mo])cc2)c2cc3c(cc2-4)C(c2ccc([Mo])cc2)(c2ccc([Mo])cc2)c2c-3sc3cc(/C=C4\C(=O)c5ccccc5C4=C(C#N)C#N)sc23)C(=O)c2ccccc21,[C][C][=C][C][=C][Branch2][Branch2][#C][C][=C][Branch1][C][F][C][Branch1][C][F][=C][Branch2][#Branch1][Branch1][C][=C][C][=C][Branch2][=Branch1][#Branch2][C][=C][C][=C][Branch2][Ring1][#Branch1][C][=C][C][=C][Branch1][=N][C][=C][C][=C][Branch1][Ring1][O][Sc][C][=C][Ring1][Branch2][C][=C][Ring1][=C][C][S][C][Branch1][C][C][=C][C][=Ring1][=Branch1][C][Branch2][Ring1][#Branch1][C][=C][C][=C][Branch1][=N][C][=C][C][=C][Branch1][Ring1][O][Sc][C][=C][Ring1][Branch2][C][=C][Ring1][=C][=C][Ring2][Ring2][=Branch1][S][Ring2][Ring2][=Branch2][S][Ring2][Ring2][=C][C][=N][N][Branch1][C][Co][N][=C][Ring2][Branch1][#Branch2][Ring1][=Branch1][S][Ring2][Branch1][#C].[N][#C][C][Branch1][Ring1][C][#N][=C][/C][=Branch2][=Branch2][#C][=C][/C][=C][C][S][C][=C][Branch1][#Branch1][C][=Ring1][Branch1][S][Ring1][Branch2][C][Branch1][N][C][=C][C][=C][Branch1][C][Mo][C][=C][Ring1][#Branch1][Branch1][N][C][=C][C][=C][Branch1][C][Mo][C][=C][Ring1][#Branch1][C][=C][C][=C][Branch1][Branch2][C][=C][Ring1][=Branch1][Ring2][Ring1][=Branch2][C][Branch1][N][C][=C][C][=C][Branch1][C][Mo][C][=C][Ring1][#Branch1][Branch1][N][C][=C][C][=C][Branch1][C][Mo][C][=C][Ring1][#Branch1][C][=C][Ring2][Ring1][Branch1][S][C][C][=C][Branch2][Ring1][=Branch2][/C][=C][\C][=Branch1][C][=O][C][=C][C][=C][C][=C][Ring1][=Branch1][C][Ring1][#Branch2][=C][Branch1][Ring1][C][#N][C][#N][S][C][Ring2][Ring1][Branch2][=Ring2][Ring1][Branch1][C][=Branch1][C][=O][C][=C][C][=C][C][=C][Ring1][=Branch1][Ring2][=Branch1][#C],{[$]c1ccc(-c2c(F)c(F)c(-c3ccc(-c4cc5c(-c6ccc(-c7ccc(O[Sc])cc7)cc6)c6sc([$])cc6c(-c6ccc(-c7ccc(O[Sc])cc7)cc6)c5s4)s3)c3nn([Co])nc23)s1}.N#CC(C#N)=C1/C(=C/c2cc3sc4c(c3s2)C(c2ccc([Mo])cc2)(c2ccc([Mo])cc2)c2cc3c(cc2-4)C(c2ccc([Mo])cc2)(c2ccc([Mo])cc2)c2c-3sc3cc(/C=C4\C(=O)c5ccccc5C4=C(C#N)C#N)sc23)C(=O)c2ccccc21
PBDTTz-N,ITIC,-5.23,-3.52,-5.574285714285715,-3.9143137254901954,1.0,CB,19.5,_,25.0,6.61,661.5,0.75,18.0,49.0,Cc1ccc(-c2c(F)c(F)c(-c3ccc(-c4cc5c(-c6ccc7cc(O[Sc])ccc7c6)c6sc(C)cc6c(-c6ccc7cc(O[Sc])ccc7c6)c5s4)s3)c3nn([Co])nc23)s1.N#CC(C#N)=C1/C(=C/c2cc3sc4c(c3s2)C(c2ccc([Mo])cc2)(c2ccc([Mo])cc2)c2cc3c(cc2-4)C(c2ccc([Mo])cc2)(c2ccc([Mo])cc2)c2c-3sc3cc(/C=C4\C(=O)c5ccccc5C4=C(C#N)C#N)sc23)C(=O)c2ccccc21,[C][C][=C][C][=C][Branch2][Branch2][#Branch1][C][=C][Branch1][C][F][C][Branch1][C][F][=C][Branch2][=Branch1][=N][C][=C][C][=C][Branch2][=Branch1][C][C][=C][C][=C][Branch2][Ring1][Ring1][C][=C][C][=C][C][=C][Branch1][Ring1][O][Sc][C][=C][C][Ring1][Branch2][=C][Ring1][N][C][S][C][Branch1][C][C][=C][C][=Ring1][=Branch1][C][Branch2][Ring1][Ring1][C][=C][C][=C][C][=C][Branch1][Ring1][O][Sc][C][=C][C][Ring1][Branch2][=C][Ring1][N][=C][Ring2][Ring2][C][S][Ring2][Ring2][Branch1][S][Ring2][Ring2][#Branch2][C][=N][N][Branch1][C][Co][N][=C][Ring2][Branch1][=Branch1][Ring1][=Branch1][S][Ring2][Branch1][O].[N][#C][C][Branch1][Ring1][C][#N][=C][/C][=Branch2][=Branch2][#C][=C][/C][=C][C][S][C][=C][Branch1][#Branch1][C][=Ring1][Branch1][S][Ring1][Branch2][C][Branch1][N][C][=C][C][=C][Branch1][C][Mo][C][=C][Ring1][#Branch1][Branch1][N][C][=C][C][=C][Branch1][C][Mo][C][=C][Ring1][#Branch1][C][=C][C][=C][Branch1][Branch2][C][=C][Ring1][=Branch1][Ring2][Ring1][=Branch2][C][Branch1][N][C][=C][C][=C][Branch1][C][Mo][C][=C][Ring1][#Branch1][Branch1][N][C][=C][C][=C][Branch1][C][Mo][C][=C][Ring1][#Branch1][C][=C][Ring2][Ring1][Branch1][S][C][C][=C][Branch2][Ring1][=Branch2][/C][=C][\C][=Branch1][C][=O][C][=C][C][=C][C][=C][Ring1][=Branch1][C][Ring1][#Branch2][=C][Branch1][Ring1][C][#N][C][#N][S][C][Ring2][Ring1][Branch2][=Ring2][Ring1][Branch1][C][=Branch1][C][=O][C][=C][C][=C][C][=C][Ring1][=Branch1][Ring2][=Branch1][#C],{[$]c1ccc(-c2c(F)c(F)c(-c3ccc(-c4cc5c(-c6ccc7cc(O[Sc])ccc7c6)c6sc([$])cc6c(-c6ccc7cc(O[Sc])ccc7c6)c5s4)s3)c3nn([Co])nc23)s1}.N#CC(C#N)=C1/C(=C/c2cc3sc4c(c3s2)C(c2ccc([Mo])cc2)(c2ccc([Mo])cc2)c2cc3c(cc2-4)C(c2ccc([Mo])cc2)(c2ccc([Mo])cc2)c2c-3sc3cc(/C=C4\C(=O)c5ccccc5C4=C(C#N)C#N)sc23)C(=O)c2ccccc21
PBDB-T,DF-PCNC,-5.297777777777778,-3.4170000000000003,-5.42,-3.81,0.833,CF,20.0,CN,100.0,11.63,1134.150112,0.86,18.16,72.62,Cc1ccc(-c2sc(-c3ccc(-c4cc5c(-c6ccc([Cr])s6)c6sc(C)cc6c(-c6ccc([Cr])s6)c5s4)s3)c3c2C(=O)c2c([Cr])sc([Cr])c2C3=O)s1.N#CC(C#N)=C1/C(=C/c2cc3c(s2)-c2sc(-c4cc(F)c(-c5cc6c(s5)-c5sc(/C=C7\C(=O)c8cc9ccccc9cc8C7=C(C#N)C#N)cc5C6([Cr])[Cr])cc4F)cc2C3([Cr])[Cr])C(=O)c2cc3ccccc3cc21,[C][C][=C][C][=C][Branch2][#Branch1][O][C][S][C][Branch2][Branch1][O][C][=C][C][=C][Branch2][Ring2][S][C][=C][C][=C][Branch1][O][C][=C][C][=C][Branch1][C][Cr][S][Ring1][=Branch1][C][S][C][Branch1][C][C][=C][C][=Ring1][=Branch1][C][Branch1][O][C][=C][C][=C][Branch1][C][Cr][S][Ring1][=Branch1][=C][Ring2][Ring1][=Branch1][S][Ring2][Ring1][=Branch2][S][Ring2][Ring1][=C][=C][C][=Ring2][Ring2][Ring1][C][=Branch1][C][=O][C][=C][Branch1][C][Cr][S][C][Branch1][C][Cr][=C][Ring1][#Branch1][C][Ring1][N][=O][S][Ring2][Branch1][Ring1].[N][#C][C][Branch1][Ring1][C][#N][=C][/C][=Branch2][Branch2][Branch2][=C][/C][=C][C][=C][Branch1][Ring2][S][Ring1][Branch1][C][S][C][Branch2][=Branch1][O][C][=C][C][Branch1][C][F][=C][Branch2][Branch1][O][C][=C][C][=C][Branch1][Ring2][S][Ring1][Branch1][C][S][C][Branch2][Ring1][#C][/C][=C][\C][=Branch1][C][=O][C][=C][C][=C][C][=C][C][=C][Ring1][=Branch1][C][=C][Ring1][#Branch2][C][Ring1][=C][=C][Branch1][Ring1][C][#N][C][#N][=C][C][=Ring2][Ring1][=Branch2][C][Ring2][Ring1][=N][Branch1][C][Cr][Cr][C][=C][Ring2][Ring2][Branch2][F][=C][C][=Ring2][Ring2][=C][C][Ring2][Branch1][C][Branch1][C][Cr][Cr][C][=Branch1][C][=O][C][=C][C][=C][C][=C][C][=C][Ring1][=Branch1][C][=C][Ring1][#Branch2][Ring2][=Branch1][Branch1],{[$]c1ccc(-c2sc(-c3ccc(-c4cc5c(-c6ccc([Cr])s6)c6sc([$])cc6c(-c6ccc([Cr])s6)c5s4)s3)c3c2C(=O)c2c([Cr])sc([Cr])c2C3=O)s1}.N#CC(C#N)=C1/C(=C/c2cc3c(s2)-c2sc(-c4cc(F)c(-c5cc6c(s5)-c5sc(/C=C7\C(=O)c8cc9ccccc9cc8C7=C(C#N)C#N)cc5C6([Cr])[Cr])cc4F)cc2C3([Cr])[Cr])C(=O)c2cc3ccccc3cc21