Donor,Acceptor,HOMO_D_eV,LUMO_D_eV,HOMO_A_eV,LUMO_A_eV,D_A_ratio_m_m,solvent,total_solids_conc_mg_mL,solvent_additive,annealing_temperature,PCE_percent,calc_PCE_percent,Voc_V,Jsc_mA_cm_pow_neg2,FF_percent,DA_SMILES,DA_SELFIES,DA_BigSMILES
J71,ZITI-4F,-5.353333333333333,-3.4318181818181825,-5.66,-3.81,1.0,CF,18.0,_,120.0,13.18,1317.3198,0.85,21.3,72.76,Cc1ccc(-c2c(F)c(F)c(-c3ccc(-c4cc5c(-c6ccc([V])s6)c6sc(C)cc6c(-c6ccc([V])s6)c5s4)s3)c3nn([Sc])nc23)s1.N#CC(C#N)=C1/C(=C/c2cc3c(s2)-c2cc4c(cc2C3)C2=C(c3cc5c(cc3C2([Co])[Co])-c2sc(/C=C3\C(=O)c6cc(F)c(F)cc6C3=C(C#N)C#N)cc2C5)C4([Co])[Co])C(=O)c2cc(F)c(F)cc21,[C][C][=C][C][=C][Branch2][#Branch1][Branch1][C][=C][Branch1][C][F][C][Branch1][C][F][=C][Branch2][Branch1][O][C][=C][C][=C][Branch2][Ring2][S][C][=C][C][=C][Branch1][O][C][=C][C][=C][Branch1][C][V][S][Ring1][=Branch1][C][S][C][Branch1][C][C][=C][C][=Ring1][=Branch1][C][Branch1][O][C][=C][C][=C][Branch1][C][V][S][Ring1][=Branch1][=C][Ring2][Ring1][=Branch1][S][Ring2][Ring1][=Branch2][S][Ring2][Ring1][=C][C][=N][N][Branch1][C][Sc][N][=C][Ring2][Ring2][#Branch2][Ring1][=Branch1][S][Ring2][Ring2][#C].[N][#C][C][Branch1][Ring1][C][#N][=C][/C][=Branch2][Branch2][Ring1][=C][/C][=C][C][=C][Branch1][Ring2][S][Ring1][Branch1][C][=C][C][=C][Branch1][Branch2][C][=C][Ring1][=Branch1][C][Ring1][#Branch2][C][=C][Branch2][Branch1][#C][C][=C][C][=C][Branch1][N][C][=C][Ring1][=Branch1][C][Ring1][=Branch2][Branch1][C][Co][Co][C][S][C][Branch2][Ring1][#C][/C][=C][\C][=Branch1][C][=O][C][=C][C][Branch1][C][F][=C][Branch1][C][F][C][=C][Ring1][Branch2][C][Ring1][N][=C][Branch1][Ring1][C][#N][C][#N][=C][C][=Ring2][Ring1][#Branch1][C][Ring2][Ring1][#C][C][Ring2][Ring2][=Branch2][Branch1][C][Co][Co][C][=Branch1][C][=O][C][=C][C][Branch1][C][F][=C][Branch1][C][F][C][=C][Ring1][Branch2][Ring2][Branch1][#C],{[$]c1ccc(-c2c(F)c(F)c(-c3ccc(-c4cc5c(-c6ccc([V])s6)c6sc([$])cc6c(-c6ccc([V])s6)c5s4)s3)c3nn([Sc])nc23)s1}.N#CC(C#N)=C1/C(=C/c2cc3c(s2)-c2cc4c(cc2C3)C2=C(c3cc5c(cc3C2([Co])[Co])-c2sc(/C=C3\C(=O)c6cc(F)c(F)cc6C3=C(C#N)C#N)cc2C5)C4([Co])[Co])C(=O)c2cc(F)c(F)cc21
J71,ZITI,-5.353333333333333,-3.4318181818181825,-5.550000000000001,-3.78,1.0,CF,17.0,_,120.0,13.04,1291.459752,0.93,20.24,68.61,Cc1ccc(-c2c(F)c(F)c(-c3ccc(-c4cc5c(-c6ccc([V])s6)c6sc(C)cc6c(-c6ccc([V])s6)c5s4)s3)c3nn([Sc])nc23)s1.N#CC(C#N)=C1/C(=C/c2cc3c(s2)-c2cc4c(cc2C3)C2C(c3cc5c(cc3C2([Sc])[Sc])-c2sc(/C=C3\C(=O)c6cc(F)ccc6C3=C(C#N)C#N)cc2C5)C4([Sc])[Sc])C(=O)c2cc(F)ccc21,[C][C][=C][C][=C][Branch2][#Branch1][Branch1][C][=C][Branch1][C][F][C][Branch1][C][F][=C][Branch2][Branch1][O][C][=C][C][=C][Branch2][Ring2][S][C][=C][C][=C][Branch1][O][C][=C][C][=C][Branch1][C][V][S][Ring1][=Branch1][C][S][C][Branch1][C][C][=C][C][=Ring1][=Branch1][C][Branch1][O][C][=C][C][=C][Branch1][C][V][S][Ring1][=Branch1][=C][Ring2][Ring1][=Branch1][S][Ring2][Ring1][=Branch2][S][Ring2][Ring1][=C][C][=N][N][Branch1][C][Sc][N][=C][Ring2][Ring2][#Branch2][Ring1][=Branch1][S][Ring2][Ring2][#C].[N][#C][C][Branch1][Ring1][C][#N][=C][/C][=Branch2][#Branch1][S][=C][/C][=C][C][=C][Branch1][Ring2][S][Ring1][Branch1][C][=C][C][=C][Branch1][Branch2][C][=C][Ring1][=Branch1][C][Ring1][#Branch2][C][C][Branch2][Branch1][N][C][=C][C][=C][Branch1][N][C][=C][Ring1][=Branch1][C][Ring1][=Branch2][Branch1][C][Sc][Sc][C][S][C][Branch2][Ring1][N][/C][=C][\C][=Branch1][C][=O][C][=C][C][Branch1][C][F][=C][C][=C][Ring1][#Branch1][C][Ring1][O][=C][Branch1][Ring1][C][#N][C][#N][=C][C][=Ring2][Ring1][=Branch1][C][Ring2][Ring1][=C][C][Ring2][Ring2][Branch2][Branch1][C][Sc][Sc][C][=Branch1][C][=O][C][=C][C][Branch1][C][F][=C][C][=C][Ring1][#Branch1][Ring2][Branch1][=N],{[$]c1ccc(-c2c(F)c(F)c(-c3ccc(-c4cc5c(-c6ccc([V])s6)c6sc([$])cc6c(-c6ccc([V])s6)c5s4)s3)c3nn([Sc])nc23)s1}.N#CC(C#N)=C1/C(=C/c2cc3c(s2)-c2cc4c(cc2C3)C2C(c3cc5c(cc3C2([Sc])[Sc])-c2sc(/C=C3\C(=O)c6cc(F)ccc6C3=C(C#N)C#N)cc2C5)C4([Sc])[Sc])C(=O)c2cc(F)ccc21
P3HT,O-IDTBR,-5.057777777777777,-2.989444444444445,-5.523333333333333,-3.793333333333333,1.0,CB,24.0,_,130.0,6.3,600.48,0.72,13.9,60.0,CCCCCCc1cc(-c2sc(-c3sc(-c4sc(C)cc4CCCCCC)cc3CCCCCC)cc2CCCCCC)sc1C.CCN1C(=O)/C(=C/c2ccc(-c3cc4c(s3)-c3cc5c(cc3C4([Ti])[Ti])-c3sc(-c4ccc(/C=C6\SC(=S)N(CC)C6=O)c6nsnc46)cc3C5([Ti])[Ti])c3nsnc23)SC1=S,[C][C][C][C][C][C][C][C][=C][Branch2][Ring2][P][C][S][C][Branch2][Ring1][S][C][S][C][Branch1][P][C][S][C][Branch1][C][C][=C][C][=Ring1][=Branch1][C][C][C][C][C][C][=C][C][=Ring1][P][C][C][C][C][C][C][=C][C][=Ring2][Ring1][N][C][C][C][C][C][C][S][C][=Ring2][Ring2][#Branch1][C].[C][C][N][C][=Branch1][C][=O][/C][=Branch2][#Branch1][S][=C][/C][=C][C][=C][Branch2][=Branch1][=C][C][=C][C][=C][Branch1][Ring2][S][Ring1][Branch1][C][=C][C][=C][Branch1][N][C][=C][Ring1][=Branch1][C][Ring1][#Branch2][Branch1][C][Ti][Ti][C][S][C][Branch2][Ring1][P][C][=C][C][=C][Branch1][P][/C][=C][\S][C][=Branch1][C][=S][N][Branch1][Ring1][C][C][C][Ring1][Branch2][=O][C][=N][S][N][=C][Ring2][Ring1][Ring1][Ring1][Branch1][=C][C][=Ring2][Ring1][Branch2][C][Ring2][Ring1][S][Branch1][C][Ti][Ti][C][=N][S][N][=C][Ring2][Branch1][C][Ring1][Branch1][S][C][Ring2][Branch1][=Branch2][=S],{CCCCCCc1cc(-c2sc(-c3sc(-c4sc([$])cc4CCCCCC)cc3CCCCCC)cc2CCCCCC)sc1[$]}.CCN1C(=O)/C(=C/c2ccc(-c3cc4c(s3)-c3cc5c(cc3C4([Ti])[Ti])-c3sc(-c4ccc(/C=C6\SC(=S)N(CC)C6=O)c6nsnc46)cc3C5([Ti])[Ti])c3nsnc23)SC1=S
P3HT,EH-IDTBR,-5.057777777777777,-2.989444444444445,-5.58,-3.9,1.0,CB,24.0,_,130.0,6.0,570.152,0.76,12.1,62.0,CCCCCCc1cc(-c2sc(-c3sc(-c4sc(C)cc4CCCCCC)cc3CCCCCC)cc2CCCCCC)sc1C.CCN1C(=O)/C(=C/c2ccc(-c3cc4c(s3)-c3cc5c(cc3C4([Cr])[Cr])-c3sc(-c4ccc(/C=C6\SC(=S)N(CC)C6=O)c6nsnc46)cc3C5([Cr])[Cr])c3nsnc23)SC1=S,[C][C][C][C][C][C][C][C][=C][Branch2][Ring2][P][C][S][C][Branch2][Ring1][S][C][S][C][Branch1][P][C][S][C][Branch1][C][C][=C][C][=Ring1][=Branch1][C][C][C][C][C][C][=C][C][=Ring1][P][C][C][C][C][C][C][=C][C][=Ring2][Ring1][N][C][C][C][C][C][C][S][C][=Ring2][Ring2][#Branch1][C].[C][C][N][C][=Branch1][C][=O][/C][=Branch2][#Branch1][S][=C][/C][=C][C][=C][Branch2][=Branch1][=C][C][=C][C][=C][Branch1][Ring2][S][Ring1][Branch1][C][=C][C][=C][Branch1][N][C][=C][Ring1][=Branch1][C][Ring1][#Branch2][Branch1][C][Cr][Cr][C][S][C][Branch2][Ring1][P][C][=C][C][=C][Branch1][P][/C][=C][\S][C][=Branch1][C][=S][N][Branch1][Ring1][C][C][C][Ring1][Branch2][=O][C][=N][S][N][=C][Ring2][Ring1][Ring1][Ring1][Branch1][=C][C][=Ring2][Ring1][Branch2][C][Ring2][Ring1][S][Branch1][C][Cr][Cr][C][=N][S][N][=C][Ring2][Branch1][C][Ring1][Branch1][S][C][Ring2][Branch1][=Branch2][=S],{CCCCCCc1cc(-c2sc(-c3sc(-c4sc([$])cc4CCCCCC)cc3CCCCCC)cc2CCCCCC)sc1[$]}.CCN1C(=O)/C(=C/c2ccc(-c3cc4c(s3)-c3cc5c(cc3C4([Cr])[Cr])-c3sc(-c4ccc(/C=C6\SC(=S)N(CC)C6=O)c6nsnc46)cc3C5([Cr])[Cr])c3nsnc23)SC1=S
P3HT,FBR,-5.057777777777777,-2.989444444444445,-5.786666666666666,-3.673333333333333,1.0,CF:DCB (80:20),16.0,_,110.0,4.11,410.697,0.82,7.95,63.0,CCCCCCc1cc(-c2sc(-c3sc(-c4sc(C)cc4CCCCCC)cc3CCCCCC)cc2CCCCCC)sc1C.CCN1C(=O)/C(=C/c2ccc(-c3ccc4c(c3)C([Ti])([Ti])c3cc(-c5ccc(/C=C6\SC(=S)N(CC)C6=O)c6nsnc56)ccc3-4)c3nsnc23)SC1=S,[C][C][C][C][C][C][C][C][=C][Branch2][Ring2][P][C][S][C][Branch2][Ring1][S][C][S][C][Branch1][P][C][S][C][Branch1][C][C][=C][C][=Ring1][=Branch1][C][C][C][C][C][C][=C][C][=Ring1][P][C][C][C][C][C][C][=C][C][=Ring2][Ring1][N][C][C][C][C][C][C][S][C][=Ring2][Ring2][#Branch1][C].[C][C][N][C][=Branch1][C][=O][/C][=Branch2][#Branch1][Ring1][=C][/C][=C][C][=C][Branch2][Branch1][P][C][=C][C][=C][C][=Branch1][Ring2][=C][Ring1][=Branch1][C][Branch1][C][Ti][Branch1][C][Ti][C][=C][C][Branch2][Ring1][P][C][=C][C][=C][Branch1][P][/C][=C][\S][C][=Branch1][C][=S][N][Branch1][Ring1][C][C][C][Ring1][Branch2][=O][C][=N][S][N][=C][Ring2][Ring1][Ring1][Ring1][Branch1][=C][C][=C][Ring2][Ring1][=Branch2][Ring2][Ring1][#C][C][=N][S][N][=C][Ring2][Ring2][O][Ring1][Branch1][S][C][Ring2][Branch1][C][=S],{CCCCCCc1cc(-c2sc(-c3sc(-c4sc([$])cc4CCCCCC)cc3CCCCCC)cc2CCCCCC)sc1[$]}.CCN1C(=O)/C(=C/c2ccc(-c3ccc4c(c3)C([Ti])([Ti])c3cc(-c5ccc(/C=C6\SC(=S)N(CC)C6=O)c6nsnc56)ccc3-4)c3nsnc23)SC1=S
PBDB-T,IDTCN,-5.297777777777778,-3.4170000000000003,-5.890000000000001,-3.93,1.0,CB,20.0,DIO,110.0,6.4,640.48248,0.85,12.06,62.48,Cc1ccc(-c2sc(-c3ccc(-c4cc5c(-c6ccc([Cr])s6)c6sc(C)cc6c(-c6ccc([Cr])s6)c5s4)s3)c3c2C(=O)c2c([Cr])sc([Cr])c2C3=O)s1.N#CC(C#N)=C1/C(=C/c2cc3c(s2)-c2cc4c(cc2C3(c2ccc([Mo])cc2)c2ccc([Mo])cc2)-c2sc(/C=C3\C(=O)c5cscc5C3=C(C#N)C#N)cc2C4(c2ccc([Mo])cc2)c2ccc([Mo])cc2)C(=O)c2cscc21,[C][C][=C][C][=C][Branch2][#Branch1][O][C][S][C][Branch2][Branch1][O][C][=C][C][=C][Branch2][Ring2][S][C][=C][C][=C][Branch1][O][C][=C][C][=C][Branch1][C][Cr][S][Ring1][=Branch1][C][S][C][Branch1][C][C][=C][C][=Ring1][=Branch1][C][Branch1][O][C][=C][C][=C][Branch1][C][Cr][S][Ring1][=Branch1][=C][Ring2][Ring1][=Branch1][S][Ring2][Ring1][=Branch2][S][Ring2][Ring1][=C][=C][C][=Ring2][Ring2][Ring1][C][=Branch1][C][=O][C][=C][Branch1][C][Cr][S][C][Branch1][C][Cr][=C][Ring1][#Branch1][C][Ring1][N][=O][S][Ring2][Branch1][Ring1].[N][#C][C][Branch1][Ring1][C][#N][=C][/C][=Branch2][Branch2][#C][=C][/C][=C][C][=C][Branch1][Ring2][S][Ring1][Branch1][C][=C][C][=C][Branch2][Ring1][S][C][=C][Ring1][=Branch1][C][Ring1][#Branch2][Branch1][N][C][=C][C][=C][Branch1][C][Mo][C][=C][Ring1][#Branch1][C][=C][C][=C][Branch1][C][Mo][C][=C][Ring1][#Branch1][C][S][C][Branch2][Ring1][Branch2][/C][=C][\C][=Branch1][C][=O][C][=C][S][C][=C][Ring1][Branch1][C][Ring1][=Branch2][=C][Branch1][Ring1][C][#N][C][#N][=C][C][=Ring2][Ring1][Ring2][C][Ring2][Ring2][Branch2][Branch1][N][C][=C][C][=C][Branch1][C][Mo][C][=C][Ring1][#Branch1][C][=C][C][=C][Branch1][C][Mo][C][=C][Ring1][#Branch1][C][=Branch1][C][=O][C][=C][S][C][=C][Ring1][Branch1][Ring2][=Branch1][#Branch1],{[$]c1ccc(-c2sc(-c3ccc(-c4cc5c(-c6ccc([Cr])s6)c6sc([$])cc6c(-c6ccc([Cr])s6)c5s4)s3)c3c2C(=O)c2c([Cr])sc([Cr])c2C3=O)s1}.N#CC(C#N)=C1/C(=C/c2cc3c(s2)-c2cc4c(cc2C3(c2ccc([Mo])cc2)c2ccc([Mo])cc2)-c2sc(/C=C3\C(=O)c5cscc5C3=C(C#N)C#N)cc2C4(c2ccc([Mo])cc2)c2ccc([Mo])cc2)C(=O)c2cscc21
P3HT,NAI-FN-NAI(BO),-5.057777777777777,-2.989444444444445,-6.07,-3.96,1.0,CB,20.0,_,25.0,3.8,393.39,0.9,9.3,47.0,CCCCCCc1cc(-c2sc(-c3sc(-c4sc(C)cc4CCCCCC)cc3CCCCCC)cc2CCCCCC)sc1C.O=C1c2cc(-c3ccc(-c4ccc5c6c(cccc46)C(=O)N([Co])C5=O)s3)ccc2-c2ccc(-c3ccc(-c4ccc5c6c(cccc46)C(=O)N([Co])C5=O)s3)cc21,[C][C][C][C][C][C][C][C][=C][Branch2][Ring2][P][C][S][C][Branch2][Ring1][S][C][S][C][Branch1][P][C][S][C][Branch1][C][C][=C][C][=Ring1][=Branch1][C][C][C][C][C][C][=C][C][=Ring1][P][C][C][C][C][C][C][=C][C][=Ring2][Ring1][N][C][C][C][C][C][C][S][C][=Ring2][Ring2][#Branch1][C].[O][=C][C][=C][C][Branch2][Ring2][Branch2][C][=C][C][=C][Branch2][Ring1][=N][C][=C][C][=C][C][=C][Branch1][=Branch2][C][=C][C][=C][Ring1][#Branch2][Ring1][=Branch1][C][=Branch1][C][=O][N][Branch1][C][Co][C][Ring1][N][=O][S][Ring2][Ring1][Branch1][=C][C][=C][Ring2][Ring1][O][C][=C][C][=C][Branch2][Ring2][Branch2][C][=C][C][=C][Branch2][Ring1][=N][C][=C][C][=C][C][=C][Branch1][=Branch2][C][=C][C][=C][Ring1][#Branch2][Ring1][=Branch1][C][=Branch1][C][=O][N][Branch1][C][Co][C][Ring1][N][=O][S][Ring2][Ring1][Branch1][C][=C][Ring2][Ring1][O][Ring2][Branch1][#Branch1],{CCCCCCc1cc(-c2sc(-c3sc(-c4sc([$])cc4CCCCCC)cc3CCCCCC)cc2CCCCCC)sc1[$]}.O=C1c2cc(-c3ccc(-c4ccc5c6c(cccc46)C(=O)N([Co])C5=O)s3)ccc2-c2ccc(-c3ccc(-c4ccc5c6c(cccc46)C(=O)N([Co])C5=O)s3)cc21
P3HT,NAI-FN-NAI(DT),-5.057777777777777,-2.989444444444445,-6.09,-3.97,1.0,CB,20.0,_,25.0,0.75,79.4325,0.89,2.55,35.0,CCCCCCc1cc(-c2sc(-c3sc(-c4sc(C)cc4CCCCCC)cc3CCCCCC)cc2CCCCCC)sc1C.CCCCCCCCCCCCC(CCCCCCCCCC)CN1C(=O)c2cccc3c(-c4ccc(-c5ccc6c(c5)C(=O)c5cc(-c7ccc(-c8ccc9c%10c(cccc8%10)C(=O)N(CC(CCCCCCCCCC)CCCCCCCCCCCC)C9=O)s7)ccc5-6)s4)ccc(c23)C1=O,[C][C][C][C][C][C][C][C][=C][Branch2][Ring2][P][C][S][C][Branch2][Ring1][S][C][S][C][Branch1][P][C][S][C][Branch1][C][C][=C][C][=Ring1][=Branch1][C][C][C][C][C][C][=C][C][=Ring1][P][C][C][C][C][C][C][=C][C][=Ring2][Ring1][N][C][C][C][C][C][C][S][C][=Ring2][Ring2][#Branch1][C].[C][C][C][C][C][C][C][C][C][C][C][C][C][Branch1][O][C][C][C][C][C][C][C][C][C][C][C][N][C][=Branch1][C][=O][C][=C][C][=C][C][=C][Branch2][Branch2][O][C][=C][C][=C][Branch2][#Branch1][S][C][=C][C][=C][C][=Branch1][Ring2][=C][Ring1][=Branch1][C][=Branch1][C][=O][C][=C][C][Branch2][=Branch1][Ring1][C][=C][C][=C][Branch2][Branch1][Branch2][C][=C][C][=C][C][=C][Branch1][=Branch2][C][=C][C][=C][Ring1][#Branch2][Ring1][=Branch1][C][=Branch1][C][=O][N][Branch2][Ring1][O][C][C][Branch1][O][C][C][C][C][C][C][C][C][C][C][C][C][C][C][C][C][C][C][C][C][C][C][C][Ring2][Ring2][Ring1][=O][S][Ring2][Ring2][N][=C][C][=C][Ring2][Branch1][C][Ring2][Branch1][#Branch1][S][Ring2][Branch1][#C][C][=C][C][=Branch1][Branch2][=C][Ring2][=Branch1][=Branch2][Ring2][=Branch1][Branch1][C][Ring2][=Branch1][=N][=O],{CCCCCCc1cc(-c2sc(-c3sc(-c4sc([$])cc4CCCCCC)cc3CCCCCC)cc2CCCCCC)sc1[$]}.CCCCCCCCCCCCC(CCCCCCCCCC)CN1C(=O)c2cccc3c(-c4ccc(-c5ccc6c(c5)C(=O)c5cc(-c7ccc(-c8ccc9c%10c(cccc8%10)C(=O)N(CC(CCCCCCCCCC)CCCCCCCCCCCC)C9=O)s7)ccc5-6)s4)ccc(c23)C1=O
P3HT,PI-FN-PI(DT),-5.057777777777777,-2.989444444444445,-6.02,-3.92,1.0,CB,20.0,_,25.0,2.2,216.216,0.91,4.95,48.0,CCCCCCc1cc(-c2sc(-c3sc(-c4sc(C)cc4CCCCCC)cc3CCCCCC)cc2CCCCCC)sc1C.CCCCCCCCCCCCC(CCCCCCCCCC)CN1C(=O)c2ccc(-c3ccc(-c4ccc5c(c4)C(=O)c4cc(-c6ccc(-c7ccc8c(c7)C(=O)N(CC(CCCCCCCCCC)CCCCCCCCCCCC)C8=O)s6)ccc4-5)s3)cc2C1=O,[C][C][C][C][C][C][C][C][=C][Branch2][Ring2][P][C][S][C][Branch2][Ring1][S][C][S][C][Branch1][P][C][S][C][Branch1][C][C][=C][C][=Ring1][=Branch1][C][C][C][C][C][C][=C][C][=Ring1][P][C][C][C][C][C][C][=C][C][=Ring2][Ring1][N][C][C][C][C][C][C][S][C][=Ring2][Ring2][#Branch1][C].[C][C][C][C][C][C][C][C][C][C][C][C][C][Branch1][O][C][C][C][C][C][C][C][C][C][C][C][N][C][=Branch1][C][=O][C][=C][C][=C][Branch2][Branch2][Branch1][C][=C][C][=C][Branch2][#Branch1][#Branch2][C][=C][C][=C][C][=Branch1][Ring2][=C][Ring1][=Branch1][C][=Branch1][C][=O][C][=C][C][Branch2][Branch1][=N][C][=C][C][=C][Branch2][Branch1][C][C][=C][C][=C][C][=Branch1][Ring2][=C][Ring1][=Branch1][C][=Branch1][C][=O][N][Branch2][Ring1][O][C][C][Branch1][O][C][C][C][C][C][C][C][C][C][C][C][C][C][C][C][C][C][C][C][C][C][C][C][Ring2][Ring1][#C][=O][S][Ring2][Ring2][Branch2][=C][C][=C][Ring2][Ring2][=C][Ring2][Branch1][Ring1][S][Ring2][Branch1][O][C][=C][Ring2][Branch1][P][C][Ring2][=Branch1][Branch1][=O],{CCCCCCc1cc(-c2sc(-c3sc(-c4sc([$])cc4CCCCCC)cc3CCCCCC)cc2CCCCCC)sc1[$]}.CCCCCCCCCCCCC(CCCCCCCCCC)CN1C(=O)c2ccc(-c3ccc(-c4ccc5c(c4)C(=O)c4cc(-c6ccc(-c7ccc8c(c7)C(=O)N(CC(CCCCCCCCCC)CCCCCCCCCCCC)C8=O)s6)ccc4-5)s3)cc2C1=O
PTzBI,ITIC,-5.34,-3.46,-5.574285714285715,-3.9143137254901954,1.0,CB,20.0,DBE,130.0,10.24,1023.797382,0.87,18.29,64.34,Cc1ccc(-c2c3c(c(-c4ccc(-c5cc6c(-c7ccc([Cr])s7)c7sc(C)cc7c(-c7ccc([Cr])s7)c6s5)s4)c4nn([Ti])nc24)C(=O)N([Ti])C3=O)s1.N#CC(C#N)=C1/C(=C/c2cc3sc4c(c3s2)C(c2ccc([Mo])cc2)(c2ccc([Mo])cc2)c2cc3c(cc2-4)C(c2ccc([Mo])cc2)(c2ccc([Mo])cc2)c2c-3sc3cc(/C=C4\C(=O)c5ccccc5C4=C(C#N)C#N)sc23)C(=O)c2ccccc21,[C][C][=C][C][=C][Branch2][#Branch1][#C][C][=C][C][=Branch2][=Branch1][N][=C][Branch2][Branch1][O][C][=C][C][=C][Branch2][Ring2][S][C][=C][C][=C][Branch1][O][C][=C][C][=C][Branch1][C][Cr][S][Ring1][=Branch1][C][S][C][Branch1][C][C][=C][C][=Ring1][=Branch1][C][Branch1][O][C][=C][C][=C][Branch1][C][Cr][S][Ring1][=Branch1][=C][Ring2][Ring1][=Branch1][S][Ring2][Ring1][=Branch2][S][Ring2][Ring1][=C][C][=N][N][Branch1][C][Ti][N][=C][Ring2][Ring2][Branch2][Ring1][=Branch1][C][=Branch1][C][=O][N][Branch1][C][Ti][C][Ring2][Ring2][N][=O][S][Ring2][Branch1][Ring1].[N][#C][C][Branch1][Ring1][C][#N][=C][/C][=Branch2][=Branch2][#C][=C][/C][=C][C][S][C][=C][Branch1][#Branch1][C][=Ring1][Branch1][S][Ring1][Branch2][C][Branch1][N][C][=C][C][=C][Branch1][C][Mo][C][=C][Ring1][#Branch1][Branch1][N][C][=C][C][=C][Branch1][C][Mo][C][=C][Ring1][#Branch1][C][=C][C][=C][Branch1][Branch2][C][=C][Ring1][=Branch1][Ring2][Ring1][=Branch2][C][Branch1][N][C][=C][C][=C][Branch1][C][Mo][C][=C][Ring1][#Branch1][Branch1][N][C][=C][C][=C][Branch1][C][Mo][C][=C][Ring1][#Branch1][C][=C][Ring2][Ring1][Branch1][S][C][C][=C][Branch2][Ring1][=Branch2][/C][=C][\C][=Branch1][C][=O][C][=C][C][=C][C][=C][Ring1][=Branch1][C][Ring1][#Branch2][=C][Branch1][Ring1][C][#N][C][#N][S][C][Ring2][Ring1][Branch2][=Ring2][Ring1][Branch1][C][=Branch1][C][=O][C][=C][C][=C][C][=C][Ring1][=Branch1][Ring2][=Branch1][#C],{[$]c1ccc(-c2c3c(c(-c4ccc(-c5cc6c(-c7ccc([Cr])s7)c7sc([$])cc7c(-c7ccc([Cr])s7)c6s5)s4)c4nn([Ti])nc24)C(=O)N([Ti])C3=O)s1}.N#CC(C#N)=C1/C(=C/c2cc3sc4c(c3s2)C(c2ccc([Mo])cc2)(c2ccc([Mo])cc2)c2cc3c(cc2-4)C(c2ccc([Mo])cc2)(c2ccc([Mo])cc2)c2c-3sc3cc(/C=C4\C(=O)c5ccccc5C4=C(C#N)C#N)sc23)C(=O)c2ccccc21
P3HT,NAI-FN-NAI(HD),-5.057777777777777,-2.989444444444445,-6.06,-3.98,1.0,CB,20.0,_,25.0,2.8,285.692,0.88,7.55,43.0,CCCCCCc1cc(-c2sc(-c3sc(-c4sc(C)cc4CCCCCC)cc3CCCCCC)cc2CCCCCC)sc1C.O=C1c2cc(-c3ccc(-c4ccc5c6c(cccc46)C(=O)N([Sc])C5=O)s3)ccc2-c2ccc(-c3ccc(-c4ccc5c6c(cccc46)C(=O)N([Sc])C5=O)s3)cc21,[C][C][C][C][C][C][C][C][=C][Branch2][Ring2][P][C][S][C][Branch2][Ring1][S][C][S][C][Branch1][P][C][S][C][Branch1][C][C][=C][C][=Ring1][=Branch1][C][C][C][C][C][C][=C][C][=Ring1][P][C][C][C][C][C][C][=C][C][=Ring2][Ring1][N][C][C][C][C][C][C][S][C][=Ring2][Ring2][#Branch1][C].[O][=C][C][=C][C][Branch2][Ring2][Branch2][C][=C][C][=C][Branch2][Ring1][=N][C][=C][C][=C][C][=C][Branch1][=Branch2][C][=C][C][=C][Ring1][#Branch2][Ring1][=Branch1][C][=Branch1][C][=O][N][Branch1][C][Sc][C][Ring1][N][=O][S][Ring2][Ring1][Branch1][=C][C][=C][Ring2][Ring1][O][C][=C][C][=C][Branch2][Ring2][Branch2][C][=C][C][=C][Branch2][Ring1][=N][C][=C][C][=C][C][=C][Branch1][=Branch2][C][=C][C][=C][Ring1][#Branch2][Ring1][=Branch1][C][=Branch1][C][=O][N][Branch1][C][Sc][C][Ring1][N][=O][S][Ring2][Ring1][Branch1][C][=C][Ring2][Ring1][O][Ring2][Branch1][#Branch1],{CCCCCCc1cc(-c2sc(-c3sc(-c4sc([$])cc4CCCCCC)cc3CCCCCC)cc2CCCCCC)sc1[$]}.O=C1c2cc(-c3ccc(-c4ccc5c6c(cccc46)C(=O)N([Sc])C5=O)s3)ccc2-c2ccc(-c3ccc(-c4ccc5c6c(cccc46)C(=O)N([Sc])C5=O)s3)cc21
P3HT,NAI-FCN-NAI(BO),-5.057777777777777,-2.989444444444445,-6.14,-4.21,1.0,CB,20.0,_,25.0,0.8,73.515,0.58,3.25,39.0,CCCCCCc1cc(-c2sc(-c3sc(-c4sc(C)cc4CCCCCC)cc3CCCCCC)cc2CCCCCC)sc1C.N#CC(C#N)=C1c2cc(-c3ccc(-c4ccc5c6c(cccc46)C(=O)N([Co])C5=O)s3)ccc2-c2ccc(-c3ccc(-c4ccc5c6c(cccc46)C(=O)N([Co])C5=O)s3)cc21,[C][C][C][C][C][C][C][C][=C][Branch2][Ring2][P][C][S][C][Branch2][Ring1][S][C][S][C][Branch1][P][C][S][C][Branch1][C][C][=C][C][=Ring1][=Branch1][C][C][C][C][C][C][=C][C][=Ring1][P][C][C][C][C][C][C][=C][C][=Ring2][Ring1][N][C][C][C][C][C][C][S][C][=Ring2][Ring2][#Branch1][C].[N][#C][C][Branch1][Ring1][C][#N][=C][C][=C][C][Branch2][Ring2][Branch2][C][=C][C][=C][Branch2][Ring1][=N][C][=C][C][=C][C][=C][Branch1][=Branch2][C][=C][C][=C][Ring1][#Branch2][Ring1][=Branch1][C][=Branch1][C][=O][N][Branch1][C][Co][C][Ring1][N][=O][S][Ring2][Ring1][Branch1][=C][C][=C][Ring2][Ring1][O][C][=C][C][=C][Branch2][Ring2][Branch2][C][=C][C][=C][Branch2][Ring1][=N][C][=C][C][=C][C][=C][Branch1][=Branch2][C][=C][C][=C][Ring1][#Branch2][Ring1][=Branch1][C][=Branch1][C][=O][N][Branch1][C][Co][C][Ring1][N][=O][S][Ring2][Ring1][Branch1][C][=C][Ring2][Ring1][O][Ring2][Branch1][#Branch1],{CCCCCCc1cc(-c2sc(-c3sc(-c4sc([$])cc4CCCCCC)cc3CCCCCC)cc2CCCCCC)sc1[$]}.N#CC(C#N)=C1c2cc(-c3ccc(-c4ccc5c6c(cccc46)C(=O)N([Co])C5=O)s3)ccc2-c2ccc(-c3ccc(-c4ccc5c6c(cccc46)C(=O)N([Co])C5=O)s3)cc21