Donor,Acceptor,HOMO_D_eV,LUMO_D_eV,HOMO_A_eV,LUMO_A_eV,D_A_ratio_m_m,solvent,total_solids_conc_mg_mL,solvent_additive,annealing_temperature,PCE_percent,calc_PCE_percent,Voc_V,Jsc_mA_cm_pow_neg2,FF_percent,DA_SMILES,DA_SELFIES,DA_BigSMILES
PBDB-T,ICBF-O,-5.297777777777778,-3.4170000000000003,-5.7,-3.75,1.0,CB,20.0,_,25.0,3.11,307.96392,1.06,6.82,42.6,Cc1ccc(-c2sc(-c3ccc(-c4cc5c(-c6ccc([Cr])s6)c6sc(C)cc6c(-c6ccc([Cr])s6)c5s4)s3)c3c2C(=O)c2c([Cr])sc([Cr])c2C3=O)s1.N#CC(C#N)=C1/C(=C/c2cc([Ti])c(-c3ccc4c(c3)C([Ti])([Ti])c3cc5c(cc3-4)C([Ti])([Ti])c3cc(-c4sc(/C=C6\C(=O)c7ccccc7C6=C(C#N)C#N)cc4[Ti])ccc3-5)s2)C(=O)c2ccccc21,[C][C][=C][C][=C][Branch2][#Branch1][O][C][S][C][Branch2][Branch1][O][C][=C][C][=C][Branch2][Ring2][S][C][=C][C][=C][Branch1][O][C][=C][C][=C][Branch1][C][Cr][S][Ring1][=Branch1][C][S][C][Branch1][C][C][=C][C][=Ring1][=Branch1][C][Branch1][O][C][=C][C][=C][Branch1][C][Cr][S][Ring1][=Branch1][=C][Ring2][Ring1][=Branch1][S][Ring2][Ring1][=Branch2][S][Ring2][Ring1][=C][=C][C][=Ring2][Ring2][Ring1][C][=Branch1][C][=O][C][=C][Branch1][C][Cr][S][C][Branch1][C][Cr][=C][Ring1][#Branch1][C][Ring1][N][=O][S][Ring2][Branch1][Ring1].[N][#C][C][Branch1][Ring1][C][#N][=C][/C][=Branch2][Branch2][#Branch1][=C][/C][=C][C][Branch1][C][Ti][=C][Branch2][#Branch1][Branch2][C][=C][C][=C][C][=Branch1][Ring2][=C][Ring1][=Branch1][C][Branch1][C][Ti][Branch1][C][Ti][C][=C][C][=C][Branch1][#Branch1][C][=C][Ring1][=Branch1][Ring1][N][C][Branch1][C][Ti][Branch1][C][Ti][C][=C][C][Branch2][Ring2][Branch1][C][S][C][Branch2][Ring1][=Branch2][/C][=C][\C][=Branch1][C][=O][C][=C][C][=C][C][=C][Ring1][=Branch1][C][Ring1][#Branch2][=C][Branch1][Ring1][C][#N][C][#N][=C][C][=Ring2][Ring1][Branch1][Ti][=C][C][=C][Ring2][Ring1][N][Ring2][Ring2][Ring1][S][Ring2][Branch1][Ring2][C][=Branch1][C][=O][C][=C][C][=C][C][=C][Ring1][=Branch1][Ring2][Branch1][#C],{[$]c1ccc(-c2sc(-c3ccc(-c4cc5c(-c6ccc([Cr])s6)c6sc([$])cc6c(-c6ccc([Cr])s6)c5s4)s3)c3c2C(=O)c2c([Cr])sc([Cr])c2C3=O)s1}.N#CC(C#N)=C1/C(=C/c2cc([Ti])c(-c3ccc4c(c3)C([Ti])([Ti])c3cc5c(cc3-4)C([Ti])([Ti])c3cc(-c4sc(/C=C6\C(=O)c7ccccc7C6=C(C#N)C#N)cc4[Ti])ccc3-5)s2)C(=O)c2ccccc21
PBDB-T,ICBF,-5.297777777777778,-3.4170000000000003,-5.529999999999999,-3.825,1.0,CB,20.0,_,25.0,6.07,612.8397,0.99,10.3,60.1,Cc1ccc(-c2sc(-c3ccc(-c4cc5c(-c6ccc([Cr])s6)c6sc(C)cc6c(-c6ccc([Cr])s6)c5s4)s3)c3c2C(=O)c2c([Cr])sc([Cr])c2C3=O)s1.N#CC(C#N)=C1/C(=C/c2ccc(-c3ccc4c(c3)C([Ti])([Ti])c3cc5c(cc3-4)C([Ti])([Ti])c3cc(-c4ccc(/C=C6\C(=O)c7ccccc7C6=C(C#N)C#N)s4)ccc3-5)s2)C(=O)c2ccccc21,[C][C][=C][C][=C][Branch2][#Branch1][O][C][S][C][Branch2][Branch1][O][C][=C][C][=C][Branch2][Ring2][S][C][=C][C][=C][Branch1][O][C][=C][C][=C][Branch1][C][Cr][S][Ring1][=Branch1][C][S][C][Branch1][C][C][=C][C][=Ring1][=Branch1][C][Branch1][O][C][=C][C][=C][Branch1][C][Cr][S][Ring1][=Branch1][=C][Ring2][Ring1][=Branch1][S][Ring2][Ring1][=Branch2][S][Ring2][Ring1][=C][=C][C][=Ring2][Ring2][Ring1][C][=Branch1][C][=O][C][=C][Branch1][C][Cr][S][C][Branch1][C][Cr][=C][Ring1][#Branch1][C][Ring1][N][=O][S][Ring2][Branch1][Ring1].[N][#C][C][Branch1][Ring1][C][#N][=C][/C][=Branch2][Branch2][Ring1][=C][/C][=C][C][=C][Branch2][#Branch1][#Branch1][C][=C][C][=C][C][=Branch1][Ring2][=C][Ring1][=Branch1][C][Branch1][C][Ti][Branch1][C][Ti][C][=C][C][=C][Branch1][#Branch1][C][=C][Ring1][=Branch1][Ring1][N][C][Branch1][C][Ti][Branch1][C][Ti][C][=C][C][Branch2][Ring2][Ring2][C][=C][C][=C][Branch2][Ring1][=Branch2][/C][=C][\C][=Branch1][C][=O][C][=C][C][=C][C][=C][Ring1][=Branch1][C][Ring1][#Branch2][=C][Branch1][Ring1][C][#N][C][#N][S][Ring2][Ring1][Branch1][=C][C][=C][Ring2][Ring1][O][Ring2][Ring2][C][S][Ring2][Branch1][C][C][=Branch1][C][=O][C][=C][C][=C][C][=C][Ring1][=Branch1][Ring2][Branch1][=N],{[$]c1ccc(-c2sc(-c3ccc(-c4cc5c(-c6ccc([Cr])s6)c6sc([$])cc6c(-c6ccc([Cr])s6)c5s4)s3)c3c2C(=O)c2c([Cr])sc([Cr])c2C3=O)s1}.N#CC(C#N)=C1/C(=C/c2ccc(-c3ccc4c(c3)C([Ti])([Ti])c3cc5c(cc3-4)C([Ti])([Ti])c3cc(-c4ccc(/C=C6\C(=O)c7ccccc7C6=C(C#N)C#N)s4)ccc3-5)s2)C(=O)c2ccccc21
PBDB-T,FICBF-O,-5.297777777777778,-3.4170000000000003,-5.72,-3.85,1.0,CB,20.0,_,25.0,5.54,554.0688,0.96,10.59,54.5,Cc1ccc(-c2sc(-c3ccc(-c4cc5c(-c6ccc([Cr])s6)c6sc(C)cc6c(-c6ccc([Cr])s6)c5s4)s3)c3c2C(=O)c2c([Cr])sc([Cr])c2C3=O)s1.N#CC(C#N)=C1/C(=C/c2cc([Ti])c(-c3ccc4c(c3)C([Ti])([Ti])c3cc5c(cc3-4)C([Ti])([Ti])c3cc(-c4sc(/C=C6\C(=O)c7cc(F)c(F)cc7C6=C(C#N)C#N)cc4[Ti])ccc3-5)s2)C(=O)c2cc(F)c(F)cc21,[C][C][=C][C][=C][Branch2][#Branch1][O][C][S][C][Branch2][Branch1][O][C][=C][C][=C][Branch2][Ring2][S][C][=C][C][=C][Branch1][O][C][=C][C][=C][Branch1][C][Cr][S][Ring1][=Branch1][C][S][C][Branch1][C][C][=C][C][=Ring1][=Branch1][C][Branch1][O][C][=C][C][=C][Branch1][C][Cr][S][Ring1][=Branch1][=C][Ring2][Ring1][=Branch1][S][Ring2][Ring1][=Branch2][S][Ring2][Ring1][=C][=C][C][=Ring2][Ring2][Ring1][C][=Branch1][C][=O][C][=C][Branch1][C][Cr][S][C][Branch1][C][Cr][=C][Ring1][#Branch1][C][Ring1][N][=O][S][Ring2][Branch1][Ring1].[N][#C][C][Branch1][Ring1][C][#N][=C][/C][=Branch2][Branch2][=N][=C][/C][=C][C][Branch1][C][Ti][=C][Branch2][#Branch1][=C][C][=C][C][=C][C][=Branch1][Ring2][=C][Ring1][=Branch1][C][Branch1][C][Ti][Branch1][C][Ti][C][=C][C][=C][Branch1][#Branch1][C][=C][Ring1][=Branch1][Ring1][N][C][Branch1][C][Ti][Branch1][C][Ti][C][=C][C][Branch2][Ring2][O][C][S][C][Branch2][Ring1][#C][/C][=C][\C][=Branch1][C][=O][C][=C][C][Branch1][C][F][=C][Branch1][C][F][C][=C][Ring1][Branch2][C][Ring1][N][=C][Branch1][Ring1][C][#N][C][#N][=C][C][=Ring2][Ring1][#Branch1][Ti][=C][C][=C][Ring2][Ring1][=C][Ring2][Ring2][Branch1][S][Ring2][Branch1][=Branch1][C][=Branch1][C][=O][C][=C][C][Branch1][C][F][=C][Branch1][C][F][C][=C][Ring1][Branch2][Ring2][=Branch1][Ring1],{[$]c1ccc(-c2sc(-c3ccc(-c4cc5c(-c6ccc([Cr])s6)c6sc([$])cc6c(-c6ccc([Cr])s6)c5s4)s3)c3c2C(=O)c2c([Cr])sc([Cr])c2C3=O)s1}.N#CC(C#N)=C1/C(=C/c2cc([Ti])c(-c3ccc4c(c3)C([Ti])([Ti])c3cc5c(cc3-4)C([Ti])([Ti])c3cc(-c4sc(/C=C6\C(=O)c7cc(F)c(F)cc7C6=C(C#N)C#N)cc4[Ti])ccc3-5)s2)C(=O)c2cc(F)c(F)cc21
PBDB-T,FICBF,-5.297777777777778,-3.4170000000000003,-5.66,-3.88,1.0,CB,20.0,_,80.0,7.41,740.8659,0.87,12.71,67.0,Cc1ccc(-c2sc(-c3ccc(-c4cc5c(-c6ccc([Cr])s6)c6sc(C)cc6c(-c6ccc([Cr])s6)c5s4)s3)c3c2C(=O)c2c([Cr])sc([Cr])c2C3=O)s1.N#CC(C#N)=C1/C(=C/c2ccc(-c3ccc4c(c3)C([Ti])([Ti])c3cc5c(cc3-4)C([Ti])([Ti])c3cc(-c4ccc(/C=C6\C(=O)c7cc(F)c(F)cc7C6=C(C#N)C#N)s4)ccc3-5)s2)C(=O)c2cc(F)c(F)cc21,[C][C][=C][C][=C][Branch2][#Branch1][O][C][S][C][Branch2][Branch1][O][C][=C][C][=C][Branch2][Ring2][S][C][=C][C][=C][Branch1][O][C][=C][C][=C][Branch1][C][Cr][S][Ring1][=Branch1][C][S][C][Branch1][C][C][=C][C][=Ring1][=Branch1][C][Branch1][O][C][=C][C][=C][Branch1][C][Cr][S][Ring1][=Branch1][=C][Ring2][Ring1][=Branch1][S][Ring2][Ring1][=Branch2][S][Ring2][Ring1][=C][=C][C][=Ring2][Ring2][Ring1][C][=Branch1][C][=O][C][=C][Branch1][C][Cr][S][C][Branch1][C][Cr][=C][Ring1][#Branch1][C][Ring1][N][=O][S][Ring2][Branch1][Ring1].[N][#C][C][Branch1][Ring1][C][#N][=C][/C][=Branch2][Branch2][=Branch2][=C][/C][=C][C][=C][Branch2][#Branch1][=N][C][=C][C][=C][C][=Branch1][Ring2][=C][Ring1][=Branch1][C][Branch1][C][Ti][Branch1][C][Ti][C][=C][C][=C][Branch1][#Branch1][C][=C][Ring1][=Branch1][Ring1][N][C][Branch1][C][Ti][Branch1][C][Ti][C][=C][C][Branch2][Ring2][#Branch2][C][=C][C][=C][Branch2][Ring1][#C][/C][=C][\C][=Branch1][C][=O][C][=C][C][Branch1][C][F][=C][Branch1][C][F][C][=C][Ring1][Branch2][C][Ring1][N][=C][Branch1][Ring1][C][#N][C][#N][S][Ring2][Ring1][#Branch1][=C][C][=C][Ring2][Ring1][=N][Ring2][Ring2][Ring2][S][Ring2][Branch1][Ring2][C][=Branch1][C][=O][C][=C][C][Branch1][C][F][=C][Branch1][C][F][C][=C][Ring1][Branch2][Ring2][Branch1][P],{[$]c1ccc(-c2sc(-c3ccc(-c4cc5c(-c6ccc([Cr])s6)c6sc([$])cc6c(-c6ccc([Cr])s6)c5s4)s3)c3c2C(=O)c2c([Cr])sc([Cr])c2C3=O)s1}.N#CC(C#N)=C1/C(=C/c2ccc(-c3ccc4c(c3)C([Ti])([Ti])c3cc5c(cc3-4)C([Ti])([Ti])c3cc(-c4ccc(/C=C6\C(=O)c7cc(F)c(F)cc7C6=C(C#N)C#N)s4)ccc3-5)s2)C(=O)c2cc(F)c(F)cc21
PBT1-EH,IDTCN,-5.43,-3.43,-5.890000000000001,-3.93,1.0,CF,7.0,_,100.0,8.69,853.94088,0.93,13.08,70.2,Cc1ccc(-c2sc(-c3ccc(-c4cc5c(-c6ccc(S[Cr])s6)c6sc(C)cc6c(-c6ccc(S[Cr])s6)c5s4)s3)c3c2C(=O)c2c([Co])sc([Co])c2C3=O)s1.N#CC(C#N)=C1/C(=C/c2cc3c(s2)-c2cc4c(cc2C3(c2ccc([Mo])cc2)c2ccc([Mo])cc2)-c2sc(/C=C3\C(=O)c5cscc5C3=C(C#N)C#N)cc2C4(c2ccc([Mo])cc2)c2ccc([Mo])cc2)C(=O)c2cscc21,[C][C][=C][C][=C][Branch2][#Branch1][=N][C][S][C][Branch2][Branch1][=N][C][=C][C][=C][Branch2][Branch1][C][C][=C][C][=C][Branch1][N][C][=C][C][=C][Branch1][Ring1][S][Cr][S][Ring1][#Branch1][C][S][C][Branch1][C][C][=C][C][=Ring1][=Branch1][C][Branch1][N][C][=C][C][=C][Branch1][Ring1][S][Cr][S][Ring1][#Branch1][=C][Ring2][Ring1][Branch2][S][Ring2][Ring1][O][S][Ring2][Ring1][S][=C][C][=Ring2][Ring2][Branch1][C][=Branch1][C][=O][C][=C][Branch1][C][Co][S][C][Branch1][C][Co][=C][Ring1][#Branch1][C][Ring1][N][=O][S][Ring2][Branch1][Branch1].[N][#C][C][Branch1][Ring1][C][#N][=C][/C][=Branch2][Branch2][#C][=C][/C][=C][C][=C][Branch1][Ring2][S][Ring1][Branch1][C][=C][C][=C][Branch2][Ring1][S][C][=C][Ring1][=Branch1][C][Ring1][#Branch2][Branch1][N][C][=C][C][=C][Branch1][C][Mo][C][=C][Ring1][#Branch1][C][=C][C][=C][Branch1][C][Mo][C][=C][Ring1][#Branch1][C][S][C][Branch2][Ring1][Branch2][/C][=C][\C][=Branch1][C][=O][C][=C][S][C][=C][Ring1][Branch1][C][Ring1][=Branch2][=C][Branch1][Ring1][C][#N][C][#N][=C][C][=Ring2][Ring1][Ring2][C][Ring2][Ring2][Branch2][Branch1][N][C][=C][C][=C][Branch1][C][Mo][C][=C][Ring1][#Branch1][C][=C][C][=C][Branch1][C][Mo][C][=C][Ring1][#Branch1][C][=Branch1][C][=O][C][=C][S][C][=C][Ring1][Branch1][Ring2][=Branch1][#Branch1],{[$]c1ccc(-c2sc(-c3ccc(-c4cc5c(-c6ccc(S[Cr])s6)c6sc([$])cc6c(-c6ccc(S[Cr])s6)c5s4)s3)c3c2C(=O)c2c([Co])sc([Co])c2C3=O)s1}.N#CC(C#N)=C1/C(=C/c2cc3c(s2)-c2cc4c(cc2C3(c2ccc([Mo])cc2)c2ccc([Mo])cc2)-c2sc(/C=C3\C(=O)c5cscc5C3=C(C#N)C#N)cc2C4(c2ccc([Mo])cc2)c2ccc([Mo])cc2)C(=O)c2cscc21
PBDB-T,IDT-T,-5.297777777777778,-3.4170000000000003,-5.4625,-3.9225,1.0,CB,15.0,_,25.0,6.36,636.2598704,0.952,11.21,59.62,Cc1ccc(-c2sc(-c3ccc(-c4cc5c(-c6ccc([Cr])s6)c6sc(C)cc6c(-c6ccc([Cr])s6)c5s4)s3)c3c2C(=O)c2c([Cr])sc([Cr])c2C3=O)s1.N#CC(C#N)=C1/C(=C/c2ccc(-c3cc4c(s3)-c3cc5c(cc3C4(c3ccc([Mo])cc3)c3ccc([Mo])cc3)-c3sc(-c4ccc(/C=C6\C(=O)c7ccccc7C6=C(C#N)C#N)s4)cc3C5(c3ccc([Mo])cc3)c3ccc([Mo])cc3)s2)C(=O)c2ccccc21,[C][C][=C][C][=C][Branch2][#Branch1][O][C][S][C][Branch2][Branch1][O][C][=C][C][=C][Branch2][Ring2][S][C][=C][C][=C][Branch1][O][C][=C][C][=C][Branch1][C][Cr][S][Ring1][=Branch1][C][S][C][Branch1][C][C][=C][C][=Ring1][=Branch1][C][Branch1][O][C][=C][C][=C][Branch1][C][Cr][S][Ring1][=Branch1][=C][Ring2][Ring1][=Branch1][S][Ring2][Ring1][=Branch2][S][Ring2][Ring1][=C][=C][C][=Ring2][Ring2][Ring1][C][=Branch1][C][=O][C][=C][Branch1][C][Cr][S][C][Branch1][C][Cr][=C][Ring1][#Branch1][C][Ring1][N][=O][S][Ring2][Branch1][Ring1].[N][#C][C][Branch1][Ring1][C][#N][=C][/C][=Branch2][#Branch2][=Branch1][=C][/C][=C][C][=C][Branch2][=Branch2][#Branch2][C][=C][C][=C][Branch1][Ring2][S][Ring1][Branch1][C][=C][C][=C][Branch2][Ring1][S][C][=C][Ring1][=Branch1][C][Ring1][#Branch2][Branch1][N][C][=C][C][=C][Branch1][C][Mo][C][=C][Ring1][#Branch1][C][=C][C][=C][Branch1][C][Mo][C][=C][Ring1][#Branch1][C][S][C][Branch2][Ring2][Ring2][C][=C][C][=C][Branch2][Ring1][=Branch2][/C][=C][\C][=Branch1][C][=O][C][=C][C][=C][C][=C][Ring1][=Branch1][C][Ring1][#Branch2][=C][Branch1][Ring1][C][#N][C][#N][S][Ring2][Ring1][Branch1][=C][C][=Ring2][Ring1][#Branch2][C][Ring2][Ring2][=C][Branch1][N][C][=C][C][=C][Branch1][C][Mo][C][=C][Ring1][#Branch1][C][=C][C][=C][Branch1][C][Mo][C][=C][Ring1][#Branch1][S][Ring2][=Branch1][Branch2][C][=Branch1][C][=O][C][=C][C][=C][C][=C][Ring1][=Branch1][Ring2][#Branch1][Ring1],{[$]c1ccc(-c2sc(-c3ccc(-c4cc5c(-c6ccc([Cr])s6)c6sc([$])cc6c(-c6ccc([Cr])s6)c5s4)s3)c3c2C(=O)c2c([Cr])sc([Cr])c2C3=O)s1}.N#CC(C#N)=C1/C(=C/c2ccc(-c3cc4c(s3)-c3cc5c(cc3C4(c3ccc([Mo])cc3)c3ccc([Mo])cc3)-c3sc(-c4ccc(/C=C6\C(=O)c7ccccc7C6=C(C#N)C#N)s4)cc3C5(c3ccc([Mo])cc3)c3ccc([Mo])cc3)s2)C(=O)c2ccccc21
PBDB-T,IDT-3MT,-5.297777777777778,-3.4170000000000003,-5.68,-4.16,1.0,CB,15.0,_,25.0,8.4,840.60522,0.95,14.43,61.32,Cc1ccc(-c2sc(-c3ccc(-c4cc5c(-c6ccc([Cr])s6)c6sc(C)cc6c(-c6ccc([Cr])s6)c5s4)s3)c3c2C(=O)c2c([Cr])sc([Cr])c2C3=O)s1.COC(=O)c1cc(/C=C2\C(=O)c3ccccc3C2=C(C#N)C#N)sc1-c1cc2c(s1)-c1cc3c(cc1C2(c1ccc([Mo])cc1)c1ccc([Mo])cc1)-c1sc(-c2sc(/C=C4\C(=O)c5ccccc5C4=C(C#N)C#N)cc2C(=O)OC)cc1C3(c1ccc([Mo])cc1)c1ccc([Mo])cc1,[C][C][=C][C][=C][Branch2][#Branch1][O][C][S][C][Branch2][Branch1][O][C][=C][C][=C][Branch2][Ring2][S][C][=C][C][=C][Branch1][O][C][=C][C][=C][Branch1][C][Cr][S][Ring1][=Branch1][C][S][C][Branch1][C][C][=C][C][=Ring1][=Branch1][C][Branch1][O][C][=C][C][=C][Branch1][C][Cr][S][Ring1][=Branch1][=C][Ring2][Ring1][=Branch1][S][Ring2][Ring1][=Branch2][S][Ring2][Ring1][=C][=C][C][=Ring2][Ring2][Ring1][C][=Branch1][C][=O][C][=C][Branch1][C][Cr][S][C][Branch1][C][Cr][=C][Ring1][#Branch1][C][Ring1][N][=O][S][Ring2][Branch1][Ring1].[C][O][C][=Branch1][C][=O][C][C][=C][Branch2][Ring1][=Branch2][/C][=C][\C][=Branch1][C][=O][C][=C][C][=C][C][=C][Ring1][=Branch1][C][Ring1][#Branch2][=C][Branch1][Ring1][C][#N][C][#N][S][C][=Ring2][Ring1][Branch1][C][=C][C][=C][Branch1][Ring2][S][Ring1][Branch1][C][=C][C][=C][Branch2][Ring1][S][C][=C][Ring1][=Branch1][C][Ring1][#Branch2][Branch1][N][C][=C][C][=C][Branch1][C][Mo][C][=C][Ring1][#Branch1][C][=C][C][=C][Branch1][C][Mo][C][=C][Ring1][#Branch1][C][S][C][Branch2][Ring2][#Branch2][C][S][C][Branch2][Ring1][=Branch2][/C][=C][\C][=Branch1][C][=O][C][=C][C][=C][C][=C][Ring1][=Branch1][C][Ring1][#Branch2][=C][Branch1][Ring1][C][#N][C][#N][=C][C][=Ring2][Ring1][Branch1][C][=Branch1][C][=O][O][C][=C][C][=Ring2][Ring1][=C][C][Ring2][Branch1][C][Branch1][N][C][=C][C][=C][Branch1][C][Mo][C][=C][Ring1][#Branch1][C][=C][C][=C][Branch1][C][Mo][C][=C][Ring1][#Branch1],{[$]c1ccc(-c2sc(-c3ccc(-c4cc5c(-c6ccc([Cr])s6)c6sc([$])cc6c(-c6ccc([Cr])s6)c5s4)s3)c3c2C(=O)c2c([Cr])sc([Cr])c2C3=O)s1}.COC(=O)c1cc(/C=C2\C(=O)c3ccccc3C2=C(C#N)C#N)sc1-c1cc2c(s1)-c1cc3c(cc1C2(c1ccc([Mo])cc1)c1ccc([Mo])cc1)-c1sc(-c2sc(/C=C4\C(=O)c5ccccc5C4=C(C#N)C#N)cc2C(=O)OC)cc1C3(c1ccc([Mo])cc1)c1ccc([Mo])cc1
PBDB-T,TTIC,-5.297777777777778,-3.4170000000000003,-5.452,-3.9900000000000007,0.667,DCB,10.0,DIO,125.0,10.61,1062.6924,0.77,22.26,62.0,Cc1ccc(-c2sc(-c3ccc(-c4cc5c(-c6ccc([Cr])s6)c6sc(C)cc6c(-c6ccc([Cr])s6)c5s4)s3)c3c2C(=O)c2c([Cr])sc([Cr])c2C3=O)s1.N#CC(C#N)=C1/C(=C/c2cc3c(s2)-c2sc4c5c(sc4c2C3(c2ccc([Mo])cc2)c2ccc([Mo])cc2)-c2sc(/C=C3\C(=O)c4ccccc4C3=C(C#N)C#N)cc2C5(c2ccc([Mo])cc2)c2ccc([Mo])cc2)C(=O)c2ccccc21,[C][C][=C][C][=C][Branch2][#Branch1][O][C][S][C][Branch2][Branch1][O][C][=C][C][=C][Branch2][Ring2][S][C][=C][C][=C][Branch1][O][C][=C][C][=C][Branch1][C][Cr][S][Ring1][=Branch1][C][S][C][Branch1][C][C][=C][C][=Ring1][=Branch1][C][Branch1][O][C][=C][C][=C][Branch1][C][Cr][S][Ring1][=Branch1][=C][Ring2][Ring1][=Branch1][S][Ring2][Ring1][=Branch2][S][Ring2][Ring1][=C][=C][C][=Ring2][Ring2][Ring1][C][=Branch1][C][=O][C][=C][Branch1][C][Cr][S][C][Branch1][C][Cr][=C][Ring1][#Branch1][C][Ring1][N][=O][S][Ring2][Branch1][Ring1].[N][#C][C][Branch1][Ring1][C][#N][=C][/C][=Branch2][=Branch2][Ring2][=C][/C][=C][C][=C][Branch1][Ring2][S][Ring1][Branch1][C][S][C][C][=C][Branch2][Ring2][Ring1][S][C][=Ring1][Branch1][C][=Ring1][Branch2][C][Ring1][N][Branch1][N][C][=C][C][=C][Branch1][C][Mo][C][=C][Ring1][#Branch1][C][=C][C][=C][Branch1][C][Mo][C][=C][Ring1][#Branch1][C][S][C][Branch2][Ring1][=Branch2][/C][=C][\C][=Branch1][C][=O][C][=C][C][=C][C][=C][Ring1][=Branch1][C][Ring1][#Branch2][=C][Branch1][Ring1][C][#N][C][#N][=C][C][=Ring2][Ring1][Branch1][C][Ring2][Ring2][#Branch2][Branch1][N][C][=C][C][=C][Branch1][C][Mo][C][=C][Ring1][#Branch1][C][=C][C][=C][Branch1][C][Mo][C][=C][Ring1][#Branch1][C][=Branch1][C][=O][C][=C][C][=C][C][=C][Ring1][=Branch1][Ring2][=Branch1][O],{[$]c1ccc(-c2sc(-c3ccc(-c4cc5c(-c6ccc([Cr])s6)c6sc([$])cc6c(-c6ccc([Cr])s6)c5s4)s3)c3c2C(=O)c2c([Cr])sc([Cr])c2C3=O)s1}.N#CC(C#N)=C1/C(=C/c2cc3c(s2)-c2sc4c5c(sc4c2C3(c2ccc([Mo])cc2)c2ccc([Mo])cc2)-c2sc(/C=C3\C(=O)c4ccccc4C3=C(C#N)C#N)cc2C5(c2ccc([Mo])cc2)c2ccc([Mo])cc2)C(=O)c2ccccc21
PBDB-T,TTIC-M,-5.297777777777778,-3.4170000000000003,-5.49,-4.03,0.667,DCB,10.0,DIO,175.0,11.48,1148.56,0.8,20.51,70.0,Cc1ccc(-c2sc(-c3ccc(-c4cc5c(-c6ccc([Cr])s6)c6sc(C)cc6c(-c6ccc([Cr])s6)c5s4)s3)c3c2C(=O)c2c([Cr])sc([Cr])c2C3=O)s1.Cc1ccc2c(c1)C(=C(C#N)C#N)/C(=C/c1cc3c(s1)-c1sc4c5c(sc4c1C3(c1ccc([Mo])cc1)c1ccc([Mo])cc1)-c1sc(/C=C3\C(=O)c4ccc(C)cc4C3=C(C#N)C#N)cc1C5(c1ccc([Mo])cc1)c1ccc([Mo])cc1)C2=O,[C][C][=C][C][=C][Branch2][#Branch1][O][C][S][C][Branch2][Branch1][O][C][=C][C][=C][Branch2][Ring2][S][C][=C][C][=C][Branch1][O][C][=C][C][=C][Branch1][C][Cr][S][Ring1][=Branch1][C][S][C][Branch1][C][C][=C][C][=Ring1][=Branch1][C][Branch1][O][C][=C][C][=C][Branch1][C][Cr][S][Ring1][=Branch1][=C][Ring2][Ring1][=Branch1][S][Ring2][Ring1][=Branch2][S][Ring2][Ring1][=C][=C][C][=Ring2][Ring2][Ring1][C][=Branch1][C][=O][C][=C][Branch1][C][Cr][S][C][Branch1][C][Cr][=C][Ring1][#Branch1][C][Ring1][N][=O][S][Ring2][Branch1][Ring1].[C][C][=C][C][=C][C][=Branch1][Ring2][=C][Ring1][=Branch1][C][=Branch1][Branch2][=C][Branch1][Ring1][C][#N][C][#N][/C][=Branch2][=Branch2][#Branch1][=C][/C][=C][C][=C][Branch1][Ring2][S][Ring1][Branch1][C][S][C][C][=C][Branch2][Ring2][Ring1][S][C][=Ring1][Branch1][C][=Ring1][Branch2][C][Ring1][N][Branch1][N][C][=C][C][=C][Branch1][C][Mo][C][=C][Ring1][#Branch1][C][=C][C][=C][Branch1][C][Mo][C][=C][Ring1][#Branch1][C][S][C][Branch2][Ring1][N][/C][=C][\C][=Branch1][C][=O][C][=C][C][=C][Branch1][C][C][C][=C][Ring1][#Branch1][C][Ring1][O][=C][Branch1][Ring1][C][#N][C][#N][=C][C][=Ring2][Ring1][=Branch1][C][Ring2][Ring2][O][Branch1][N][C][=C][C][=C][Branch1][C][Mo][C][=C][Ring1][#Branch1][C][=C][C][=C][Branch1][C][Mo][C][=C][Ring1][#Branch1][C][Ring2][=Branch1][=N][=O],{[$]c1ccc(-c2sc(-c3ccc(-c4cc5c(-c6ccc([Cr])s6)c6sc([$])cc6c(-c6ccc([Cr])s6)c5s4)s3)c3c2C(=O)c2c([Cr])sc([Cr])c2C3=O)s1}.Cc1ccc2c(c1)C(=C(C#N)C#N)/C(=C/c1cc3c(s1)-c1sc4c5c(sc4c1C3(c1ccc([Mo])cc1)c1ccc([Mo])cc1)-c1sc(/C=C3\C(=O)c4ccc(C)cc4C3=C(C#N)C#N)cc1C5(c1ccc([Mo])cc1)c1ccc([Mo])cc1)C2=O