Donor,Acceptor,HOMO_D_eV,LUMO_D_eV,HOMO_A_eV,LUMO_A_eV,D_A_ratio_m_m,solvent,total_solids_conc_mg_mL,solvent_additive,annealing_temperature,PCE_percent,calc_PCE_percent,Voc_V,Jsc_mA_cm_pow_neg2,FF_percent,DA_SMILES,DA_SELFIES,DA_BigSMILES
PBDB-ST,ITIC-SC2C6,-5.37,-3.59,-5.74,-3.86,1.0,DCB,8.0,CBA,110.0,9.16,902.0416,0.92,15.32,64.0,CCCCC(CC)CSc1ccc(-c2c3cc(-c4ccc(-c5sc(-c6ccc(C)s6)c6c5C(=O)c5c(CC(CC)CCCC)sc(CC(CC)CCCC)c5C6=O)s4)sc3c(-c3ccc(SCC(CC)CCCC)s3)c3cc(C)sc23)s1.N#CC(C#N)=C1/C(=C/c2cc3sc4c(c3s2)C(c2ccc(S[Cr])cc2)(c2ccc(S[Cr])cc2)c2cc3c(cc2-4)C(c2ccc(S[Cr])cc2)(c2ccc(S[Cr])cc2)c2c-3sc3cc(/C=C4\C(=O)c5ccccc5C4=C(C#N)C#N)sc23)C(=O)c2ccccc21,[C][C][C][C][C][Branch1][Ring1][C][C][C][S][C][=C][C][=C][Branch2][=Branch2][=Branch2][C][=C][C][=C][Branch2][=Branch1][Branch2][C][=C][C][=C][Branch2][Branch1][=N][C][S][C][Branch1][O][C][=C][C][=C][Branch1][C][C][S][Ring1][=Branch1][=C][C][=Ring1][O][C][=Branch1][C][=O][C][=C][Branch1][O][C][C][Branch1][Ring1][C][C][C][C][C][C][S][C][Branch1][O][C][C][Branch1][Ring1][C][C][C][C][C][C][=C][Ring2][Ring1][Branch1][C][Ring2][Ring1][#Branch2][=O][S][Ring2][Ring2][=Branch2][S][C][Ring2][Ring2][=C][=C][Branch2][Ring1][Branch1][C][=C][C][=C][Branch1][N][S][C][C][Branch1][Ring1][C][C][C][C][C][C][S][Ring1][=C][C][C][=C][Branch1][C][C][S][C][Ring2][=Branch1][Ring2][=Ring1][=Branch1][S][Ring2][=Branch1][=Branch2].[N][#C][C][Branch1][Ring1][C][#N][=C][/C][=Branch2][#Branch2][Ring1][=C][/C][=C][C][S][C][=C][Branch1][#Branch1][C][=Ring1][Branch1][S][Ring1][Branch2][C][Branch1][=N][C][=C][C][=C][Branch1][Ring1][S][Cr][C][=C][Ring1][Branch2][Branch1][=N][C][=C][C][=C][Branch1][Ring1][S][Cr][C][=C][Ring1][Branch2][C][=C][C][=C][Branch1][Branch2][C][=C][Ring1][=Branch1][Ring2][Ring1][O][C][Branch1][=N][C][=C][C][=C][Branch1][Ring1][S][Cr][C][=C][Ring1][Branch2][Branch1][=N][C][=C][C][=C][Branch1][Ring1][S][Cr][C][=C][Ring1][Branch2][C][=C][Ring2][Ring1][#Branch1][S][C][C][=C][Branch2][Ring1][=Branch2][/C][=C][\C][=Branch1][C][=O][C][=C][C][=C][C][=C][Ring1][=Branch1][C][Ring1][#Branch2][=C][Branch1][Ring1][C][#N][C][#N][S][C][Ring2][Ring1][Branch2][=Ring2][Ring1][Branch1][C][=Branch1][C][=O][C][=C][C][=C][C][=C][Ring1][=Branch1][Ring2][#Branch1][Ring1],{CCCCC(CC)CSc1ccc(-c2c3cc(-c4ccc(-c5sc(-c6ccc([$])s6)c6c5C(=O)c5c(CC(CC)CCCC)sc(CC(CC)CCCC)c5C6=O)s4)sc3c(-c3ccc(SCC(CC)CCCC)s3)c3cc([$])sc23)s1}.N#CC(C#N)=C1/C(=C/c2cc3sc4c(c3s2)C(c2ccc(S[Cr])cc2)(c2ccc(S[Cr])cc2)c2cc3c(cc2-4)C(c2ccc(S[Cr])cc2)(c2ccc(S[Cr])cc2)c2c-3sc3cc(/C=C4\C(=O)c5ccccc5C4=C(C#N)C#N)sc23)C(=O)c2ccccc21
PTB7-Th,ITIC-Th,-5.21,-3.542368421052632,-5.673333333333334,-3.908888888888889,0.769,o-DCB,20.0,CN,25.0,8.7,866.592,0.8,15.93,68.0,Cc1cc2c(-c3ccc([Cr])s3)c3sc(-c4sc(C)c5c(F)c(C(=O)O[Cr])sc45)cc3c(-c3ccc([Cr])s3)c2s1.N#CC(C#N)=C1/C(=C/c2cc3sc4c(c3s2)C(c2ccc([Mo])s2)(c2ccc([Mo])s2)c2cc3c(cc2-4)C(c2ccc([Mo])s2)(c2ccc([Mo])s2)c2c-3sc3cc(/C=C4\C(=O)c5ccccc5C4=C(C#N)C#N)sc23)C(=O)c2ccccc21,[C][C][=C][C][=C][Branch1][O][C][=C][C][=C][Branch1][C][Cr][S][Ring1][=Branch1][C][S][C][Branch2][Ring1][O][C][S][C][Branch1][C][C][=C][C][Branch1][C][F][=C][Branch1][#Branch1][C][=Branch1][C][=O][O][Cr][S][C][=Ring1][=C][Ring1][#Branch2][=C][C][=Ring2][Ring1][Ring1][C][Branch1][O][C][=C][C][=C][Branch1][C][Cr][S][Ring1][=Branch1][=C][Ring2][Ring2][Ring1][S][Ring2][Ring2][=Branch1].[N][#C][C][Branch1][Ring1][C][#N][=C][/C][=Branch2][=Branch2][O][=C][/C][=C][C][S][C][=C][Branch1][#Branch1][C][=Ring1][Branch1][S][Ring1][Branch2][C][Branch1][O][C][=C][C][=C][Branch1][C][Mo][S][Ring1][=Branch1][Branch1][O][C][=C][C][=C][Branch1][C][Mo][S][Ring1][=Branch1][C][=C][C][=C][Branch1][Branch2][C][=C][Ring1][=Branch1][Ring2][Ring1][#Branch1][C][Branch1][O][C][=C][C][=C][Branch1][C][Mo][S][Ring1][=Branch1][Branch1][O][C][=C][C][=C][Branch1][C][Mo][S][Ring1][=Branch1][C][=C][Ring2][Ring1][Ring1][S][C][C][=C][Branch2][Ring1][=Branch2][/C][=C][\C][=Branch1][C][=O][C][=C][C][=C][C][=C][Ring1][=Branch1][C][Ring1][#Branch2][=C][Branch1][Ring1][C][#N][C][#N][S][C][Ring2][Ring1][Branch2][=Ring2][Ring1][Branch1][C][=Branch1][C][=O][C][=C][C][=C][C][=C][Ring1][=Branch1][Ring2][=Branch1][O],{[$]c1cc2c(-c3ccc([Cr])s3)c3sc(-c4sc([$])c5c(F)c(C(=O)O[Cr])sc45)cc3c(-c3ccc([Cr])s3)c2s1}.N#CC(C#N)=C1/C(=C/c2cc3sc4c(c3s2)C(c2ccc([Mo])s2)(c2ccc([Mo])s2)c2cc3c(cc2-4)C(c2ccc([Mo])s2)(c2ccc([Mo])s2)c2c-3sc3cc(/C=C4\C(=O)c5ccccc5C4=C(C#N)C#N)sc23)C(=O)c2ccccc21
PDBT-T1,ITIC-Th,-5.36,-3.43,-5.673333333333334,-3.908888888888889,1.0,CF,12.0,CN,25.0,9.6,958.93952,0.88,16.24,67.1,Cc1ccc(-c2sc(-c3ccc(-c4cc5sc6c(-c7ccc([Ti])s7)c7c(sc8cc(C)sc87)c(-c7ccc([Ti])s7)c6c5s4)s3)c3c2C(=O)c2c([Cr])sc([Cr])c2C3=O)s1.N#CC(C#N)=C1/C(=C/c2cc3sc4c(c3s2)C(c2ccc([Mo])s2)(c2ccc([Mo])s2)c2cc3c(cc2-4)C(c2ccc([Mo])s2)(c2ccc([Mo])s2)c2c-3sc3cc(/C=C4\C(=O)c5ccccc5C4=C(C#N)C#N)sc23)C(=O)c2ccccc21,[C][C][=C][C][=C][Branch2][Branch2][Branch2][C][S][C][Branch2][=Branch1][Branch2][C][=C][C][=C][Branch2][Branch1][=N][C][=C][C][S][C][=C][Branch1][O][C][=C][C][=C][Branch1][C][Ti][S][Ring1][=Branch1][C][=C][Branch1][=C][S][C][C][=C][Branch1][C][C][S][C][=Ring1][=Branch1][Ring1][=Branch2][C][Branch1][O][C][=C][C][=C][Branch1][C][Ti][S][Ring1][=Branch1][=C][Ring2][Ring1][=Branch2][C][=Ring2][Ring1][N][S][Ring2][Ring1][#C][S][Ring2][Ring2][Ring2][=C][C][=Ring2][Ring2][=Branch2][C][=Branch1][C][=O][C][=C][Branch1][C][Cr][S][C][Branch1][C][Cr][=C][Ring1][#Branch1][C][Ring1][N][=O][S][Ring2][Branch1][=Branch2].[N][#C][C][Branch1][Ring1][C][#N][=C][/C][=Branch2][=Branch2][O][=C][/C][=C][C][S][C][=C][Branch1][#Branch1][C][=Ring1][Branch1][S][Ring1][Branch2][C][Branch1][O][C][=C][C][=C][Branch1][C][Mo][S][Ring1][=Branch1][Branch1][O][C][=C][C][=C][Branch1][C][Mo][S][Ring1][=Branch1][C][=C][C][=C][Branch1][Branch2][C][=C][Ring1][=Branch1][Ring2][Ring1][#Branch1][C][Branch1][O][C][=C][C][=C][Branch1][C][Mo][S][Ring1][=Branch1][Branch1][O][C][=C][C][=C][Branch1][C][Mo][S][Ring1][=Branch1][C][=C][Ring2][Ring1][Ring1][S][C][C][=C][Branch2][Ring1][=Branch2][/C][=C][\C][=Branch1][C][=O][C][=C][C][=C][C][=C][Ring1][=Branch1][C][Ring1][#Branch2][=C][Branch1][Ring1][C][#N][C][#N][S][C][Ring2][Ring1][Branch2][=Ring2][Ring1][Branch1][C][=Branch1][C][=O][C][=C][C][=C][C][=C][Ring1][=Branch1][Ring2][=Branch1][O],{[$]c1ccc(-c2sc(-c3ccc(-c4cc5sc6c(-c7ccc([Ti])s7)c7c(sc8cc([$])sc87)c(-c7ccc([Ti])s7)c6c5s4)s3)c3c2C(=O)c2c([Cr])sc([Cr])c2C3=O)s1}.N#CC(C#N)=C1/C(=C/c2cc3sc4c(c3s2)C(c2ccc([Mo])s2)(c2ccc([Mo])s2)c2cc3c(cc2-4)C(c2ccc([Mo])s2)(c2ccc([Mo])s2)c2c-3sc3cc(/C=C4\C(=O)c5ccccc5C4=C(C#N)C#N)sc23)C(=O)c2ccccc21
P2F-EH,ITIC,-5.36,-3.04,-5.574285714285715,-3.9143137254901954,1.0,CF,11.0,_,100.0,6.13,615.310816,0.983,12.4,50.48,CCCCCCCCN1C(=O)c2c(c(-c3ccc(-c4cc5c(-c6cc(F)c([Cr])c(F)c6)c6sc(C)cc6c(-c6cc(F)c([Cr])c(F)c6)c5s4)s3)c3nn([Cr])nc3c2-c2ccc(C)s2)C1=O.N#CC(C#N)=C1/C(=C/c2cc3sc4c(c3s2)C(c2ccc([Mo])cc2)(c2ccc([Mo])cc2)c2cc3c(cc2-4)C(c2ccc([Mo])cc2)(c2ccc([Mo])cc2)c2c-3sc3cc(/C=C4\C(=O)c5ccccc5C4=C(C#N)C#N)sc23)C(=O)c2ccccc21,[C][C][C][C][C][C][C][C][N][C][=Branch1][C][=O][C][C][=Branch2][Branch2][#Branch1][=C][Branch2][=Branch1][O][C][=C][C][=C][Branch2][Branch1][S][C][=C][C][=C][Branch2][Ring1][C][C][=C][C][Branch1][C][F][=C][Branch1][C][Cr][C][Branch1][C][F][=C][Ring1][=Branch2][C][S][C][Branch1][C][C][=C][C][=Ring1][=Branch1][C][Branch2][Ring1][C][C][=C][C][Branch1][C][F][=C][Branch1][C][Cr][C][Branch1][C][F][=C][Ring1][=Branch2][=C][Ring2][Ring1][N][S][Ring2][Ring1][#C][S][Ring2][Ring2][Ring2][C][=N][N][Branch1][C][Cr][N][=C][Ring1][=Branch1][C][=Ring2][Ring2][=C][C][=C][C][=C][Branch1][C][C][S][Ring1][=Branch1][C][Ring2][Branch1][Branch2][=O].[N][#C][C][Branch1][Ring1][C][#N][=C][/C][=Branch2][=Branch2][#C][=C][/C][=C][C][S][C][=C][Branch1][#Branch1][C][=Ring1][Branch1][S][Ring1][Branch2][C][Branch1][N][C][=C][C][=C][Branch1][C][Mo][C][=C][Ring1][#Branch1][Branch1][N][C][=C][C][=C][Branch1][C][Mo][C][=C][Ring1][#Branch1][C][=C][C][=C][Branch1][Branch2][C][=C][Ring1][=Branch1][Ring2][Ring1][=Branch2][C][Branch1][N][C][=C][C][=C][Branch1][C][Mo][C][=C][Ring1][#Branch1][Branch1][N][C][=C][C][=C][Branch1][C][Mo][C][=C][Ring1][#Branch1][C][=C][Ring2][Ring1][Branch1][S][C][C][=C][Branch2][Ring1][=Branch2][/C][=C][\C][=Branch1][C][=O][C][=C][C][=C][C][=C][Ring1][=Branch1][C][Ring1][#Branch2][=C][Branch1][Ring1][C][#N][C][#N][S][C][Ring2][Ring1][Branch2][=Ring2][Ring1][Branch1][C][=Branch1][C][=O][C][=C][C][=C][C][=C][Ring1][=Branch1][Ring2][=Branch1][#C],{CCCCCCCCN1C(=O)c2c(c(-c3ccc(-c4cc5c(-c6cc(F)c([Cr])c(F)c6)c6sc([$])cc6c(-c6cc(F)c([Cr])c(F)c6)c5s4)s3)c3nn([Cr])nc3c2-c2ccc([$])s2)C1=O}.N#CC(C#N)=C1/C(=C/c2cc3sc4c(c3s2)C(c2ccc([Mo])cc2)(c2ccc([Mo])cc2)c2cc3c(cc2-4)C(c2ccc([Mo])cc2)(c2ccc([Mo])cc2)c2c-3sc3cc(/C=C4\C(=O)c5ccccc5C4=C(C#N)C#N)sc23)C(=O)c2ccccc21
P2F-Ehp,ITIC,-5.38,-3.06,-5.574285714285715,-3.9143137254901954,1.0,CF,11.0,_,100.0,7.28,725.4930186,1.017,13.02,54.79,CCCCCCCCN1C(=O)c2c(c(-c3ccc(-c4cc5c(-c6cc(F)c(CC(CC)CCCC)c(F)c6)c6sc(C)cc6c(-c6cc(F)c(CC(CC)CCCC)c(F)c6)c5s4)s3)c3nn(CCC(CC)CCCC)nc3c2-c2ccc(C)s2)C1=O.N#CC(C#N)=C1/C(=C/c2cc3sc4c(c3s2)C(c2ccc([Mo])cc2)(c2ccc([Mo])cc2)c2cc3c(cc2-4)C(c2ccc([Mo])cc2)(c2ccc([Mo])cc2)c2c-3sc3cc(/C=C4\C(=O)c5ccccc5C4=C(C#N)C#N)sc23)C(=O)c2ccccc21,[C][C][C][C][C][C][C][C][N][C][=Branch1][C][=O][C][C][=Branch2][#Branch2][Ring1][=C][Branch2][#Branch1][=N][C][=C][C][=C][Branch2][#Branch1][C][C][=C][C][=C][Branch2][Ring1][O][C][=C][C][Branch1][C][F][=C][Branch1][O][C][C][Branch1][Ring1][C][C][C][C][C][C][C][Branch1][C][F][=C][Ring1][S][C][S][C][Branch1][C][C][=C][C][=Ring1][=Branch1][C][Branch2][Ring1][O][C][=C][C][Branch1][C][F][=C][Branch1][O][C][C][Branch1][Ring1][C][C][C][C][C][C][C][Branch1][C][F][=C][Ring1][S][=C][Ring2][Ring2][#Branch2][S][Ring2][Ring2][=N][S][Ring2][Branch1][C][C][=N][N][Branch1][N][C][C][C][Branch1][Ring1][C][C][C][C][C][C][N][=C][Ring1][=C][C][=Ring2][=Branch1][Ring2][C][=C][C][=C][Branch1][C][C][S][Ring1][=Branch1][C][Ring2][=Branch1][=C][=O].[N][#C][C][Branch1][Ring1][C][#N][=C][/C][=Branch2][=Branch2][#C][=C][/C][=C][C][S][C][=C][Branch1][#Branch1][C][=Ring1][Branch1][S][Ring1][Branch2][C][Branch1][N][C][=C][C][=C][Branch1][C][Mo][C][=C][Ring1][#Branch1][Branch1][N][C][=C][C][=C][Branch1][C][Mo][C][=C][Ring1][#Branch1][C][=C][C][=C][Branch1][Branch2][C][=C][Ring1][=Branch1][Ring2][Ring1][=Branch2][C][Branch1][N][C][=C][C][=C][Branch1][C][Mo][C][=C][Ring1][#Branch1][Branch1][N][C][=C][C][=C][Branch1][C][Mo][C][=C][Ring1][#Branch1][C][=C][Ring2][Ring1][Branch1][S][C][C][=C][Branch2][Ring1][=Branch2][/C][=C][\C][=Branch1][C][=O][C][=C][C][=C][C][=C][Ring1][=Branch1][C][Ring1][#Branch2][=C][Branch1][Ring1][C][#N][C][#N][S][C][Ring2][Ring1][Branch2][=Ring2][Ring1][Branch1][C][=Branch1][C][=O][C][=C][C][=C][C][=C][Ring1][=Branch1][Ring2][=Branch1][#C],{CCCCCCCCN1C(=O)c2c(c(-c3ccc(-c4cc5c(-c6cc(F)c(CC(CC)CCCC)c(F)c6)c6sc([$])cc6c(-c6cc(F)c(CC(CC)CCCC)c(F)c6)c5s4)s3)c3nn(CCC(CC)CCCC)nc3c2-c2ccc([$])s2)C1=O}.N#CC(C#N)=C1/C(=C/c2cc3sc4c(c3s2)C(c2ccc([Mo])cc2)(c2ccc([Mo])cc2)c2cc3c(cc2-4)C(c2ccc([Mo])cc2)(c2ccc([Mo])cc2)c2c-3sc3cc(/C=C4\C(=O)c5ccccc5C4=C(C#N)C#N)sc23)C(=O)c2ccccc21
P2F-EO,ITIC,-5.41,-3.08,-5.574285714285715,-3.9143137254901954,1.0,CF,11.0,_,100.0,6.73,673.1430585,1.013,12.65,52.53,CCCCCCCCN1C(=O)c2c(c(-c3ccc(-c4cc5c(-c6cc(F)c([Cr])c(F)c6)c6sc(C)cc6c(-c6cc(F)c([Cr])c(F)c6)c5s4)s3)c3nn([Sm])nc3c2-c2ccc(C)s2)C1=O.N#CC(C#N)=C1/C(=C/c2cc3sc4c(c3s2)C(c2ccc([Mo])cc2)(c2ccc([Mo])cc2)c2cc3c(cc2-4)C(c2ccc([Mo])cc2)(c2ccc([Mo])cc2)c2c-3sc3cc(/C=C4\C(=O)c5ccccc5C4=C(C#N)C#N)sc23)C(=O)c2ccccc21,[C][C][C][C][C][C][C][C][N][C][=Branch1][C][=O][C][C][=Branch2][Branch2][#Branch1][=C][Branch2][=Branch1][O][C][=C][C][=C][Branch2][Branch1][S][C][=C][C][=C][Branch2][Ring1][C][C][=C][C][Branch1][C][F][=C][Branch1][C][Cr][C][Branch1][C][F][=C][Ring1][=Branch2][C][S][C][Branch1][C][C][=C][C][=Ring1][=Branch1][C][Branch2][Ring1][C][C][=C][C][Branch1][C][F][=C][Branch1][C][Cr][C][Branch1][C][F][=C][Ring1][=Branch2][=C][Ring2][Ring1][N][S][Ring2][Ring1][#C][S][Ring2][Ring2][Ring2][C][=N][N][Branch1][C][Sm][N][=C][Ring1][=Branch1][C][=Ring2][Ring2][=C][C][=C][C][=C][Branch1][C][C][S][Ring1][=Branch1][C][Ring2][Branch1][Branch2][=O].[N][#C][C][Branch1][Ring1][C][#N][=C][/C][=Branch2][=Branch2][#C][=C][/C][=C][C][S][C][=C][Branch1][#Branch1][C][=Ring1][Branch1][S][Ring1][Branch2][C][Branch1][N][C][=C][C][=C][Branch1][C][Mo][C][=C][Ring1][#Branch1][Branch1][N][C][=C][C][=C][Branch1][C][Mo][C][=C][Ring1][#Branch1][C][=C][C][=C][Branch1][Branch2][C][=C][Ring1][=Branch1][Ring2][Ring1][=Branch2][C][Branch1][N][C][=C][C][=C][Branch1][C][Mo][C][=C][Ring1][#Branch1][Branch1][N][C][=C][C][=C][Branch1][C][Mo][C][=C][Ring1][#Branch1][C][=C][Ring2][Ring1][Branch1][S][C][C][=C][Branch2][Ring1][=Branch2][/C][=C][\C][=Branch1][C][=O][C][=C][C][=C][C][=C][Ring1][=Branch1][C][Ring1][#Branch2][=C][Branch1][Ring1][C][#N][C][#N][S][C][Ring2][Ring1][Branch2][=Ring2][Ring1][Branch1][C][=Branch1][C][=O][C][=C][C][=C][C][=C][Ring1][=Branch1][Ring2][=Branch1][#C],{CCCCCCCCN1C(=O)c2c(c(-c3ccc(-c4cc5c(-c6cc(F)c([Cr])c(F)c6)c6sc([$])cc6c(-c6cc(F)c([Cr])c(F)c6)c5s4)s3)c3nn([Sm])nc3c2-c2ccc([$])s2)C1=O}.N#CC(C#N)=C1/C(=C/c2cc3sc4c(c3s2)C(c2ccc([Mo])cc2)(c2ccc([Mo])cc2)c2cc3c(cc2-4)C(c2ccc([Mo])cc2)(c2ccc([Mo])cc2)c2c-3sc3cc(/C=C4\C(=O)c5ccccc5C4=C(C#N)C#N)sc23)C(=O)c2ccccc21
P2F-Ehp,IT-F,-5.38,-3.06,-5.619999999999998,-4.018571428571428,1.0,CF,11.0,_,100.0,10.06,1004.461779,0.959,16.91,61.94,CCCCCCCCN1C(=O)c2c(c(-c3ccc(-c4cc5c(-c6cc(F)c(CC(CC)CCCC)c(F)c6)c6sc(C)cc6c(-c6cc(F)c(CC(CC)CCCC)c(F)c6)c5s4)s3)c3nn(CCC(CC)CCCC)nc3c2-c2ccc(C)s2)C1=O.N#CC(C#N)=C1C(=Cc2cc3sc4c(c3s2)C(c2ccc([Mo])cc2)(c2ccc([Mo])cc2)c2cc3c(cc2-4)C(c2ccc([Mo])cc2)(c2ccc([Mo])cc2)c2c-3sc3cc(C=C4C(=O)c5cc(F)ccc5C4=C(C#N)C#N)sc23)C(=O)c2cc(F)ccc21,[C][C][C][C][C][C][C][C][N][C][=Branch1][C][=O][C][C][=Branch2][#Branch2][Ring1][=C][Branch2][#Branch1][=N][C][=C][C][=C][Branch2][#Branch1][C][C][=C][C][=C][Branch2][Ring1][O][C][=C][C][Branch1][C][F][=C][Branch1][O][C][C][Branch1][Ring1][C][C][C][C][C][C][C][Branch1][C][F][=C][Ring1][S][C][S][C][Branch1][C][C][=C][C][=Ring1][=Branch1][C][Branch2][Ring1][O][C][=C][C][Branch1][C][F][=C][Branch1][O][C][C][Branch1][Ring1][C][C][C][C][C][C][C][Branch1][C][F][=C][Ring1][S][=C][Ring2][Ring2][#Branch2][S][Ring2][Ring2][=N][S][Ring2][Branch1][C][C][=N][N][Branch1][N][C][C][C][Branch1][Ring1][C][C][C][C][C][C][N][=C][Ring1][=C][C][=Ring2][=Branch1][Ring2][C][=C][C][=C][Branch1][C][C][S][Ring1][=Branch1][C][Ring2][=Branch1][=C][=O].[N][#C][C][Branch1][Ring1][C][#N][=C][C][=Branch2][#Branch2][C][=C][C][=C][C][S][C][=C][Branch1][#Branch1][C][=Ring1][Branch1][S][Ring1][Branch2][C][Branch1][N][C][=C][C][=C][Branch1][C][Mo][C][=C][Ring1][#Branch1][Branch1][N][C][=C][C][=C][Branch1][C][Mo][C][=C][Ring1][#Branch1][C][=C][C][=C][Branch1][Branch2][C][=C][Ring1][=Branch1][Ring2][Ring1][=Branch2][C][Branch1][N][C][=C][C][=C][Branch1][C][Mo][C][=C][Ring1][#Branch1][Branch1][N][C][=C][C][=C][Branch1][C][Mo][C][=C][Ring1][#Branch1][C][=C][Ring2][Ring1][Branch1][S][C][C][=C][Branch2][Ring1][N][C][=C][C][=Branch1][C][=O][C][=C][C][Branch1][C][F][=C][C][=C][Ring1][#Branch1][C][Ring1][O][=C][Branch1][Ring1][C][#N][C][#N][S][C][Ring2][Ring1][=Branch2][=Ring2][Ring1][=Branch1][C][=Branch1][C][=O][C][=C][C][Branch1][C][F][=C][C][=C][Ring1][#Branch1][Ring2][=Branch1][P],{CCCCCCCCN1C(=O)c2c(c(-c3ccc(-c4cc5c(-c6cc(F)c(CC(CC)CCCC)c(F)c6)c6sc([$])cc6c(-c6cc(F)c(CC(CC)CCCC)c(F)c6)c5s4)s3)c3nn(CCC(CC)CCCC)nc3c2-c2ccc([$])s2)C1=O}.N#CC(C#N)=C1C(=Cc2cc3sc4c(c3s2)C(c2ccc([Mo])cc2)(c2ccc([Mo])cc2)c2cc3c(cc2-4)C(c2ccc([Mo])cc2)(c2ccc([Mo])cc2)c2c-3sc3cc(C=C4C(=O)c5cc(F)ccc5C4=C(C#N)C#N)sc23)C(=O)c2cc(F)ccc21
P2F-Ehp,IT-2F,-5.38,-3.06,-5.670384615384615,-4.058076923076923,1.0,CF,11.0,_,100.0,12.96,1297.178834,0.891,19.65,74.09,CCCCCCCCN1C(=O)c2c(c(-c3ccc(-c4cc5c(-c6cc(F)c(CC(CC)CCCC)c(F)c6)c6sc(C)cc6c(-c6cc(F)c(CC(CC)CCCC)c(F)c6)c5s4)s3)c3nn(CCC(CC)CCCC)nc3c2-c2ccc(C)s2)C1=O.N#CC(C#N)=C1/C(=C/c2cc3sc4c(c3s2)C(c2ccc([Mo])cc2)(c2ccc([Mo])cc2)c2cc3c(cc2-4)C(c2ccc([Mo])cc2)(c2ccc([Mo])cc2)c2c-3sc3cc(/C=C4\C(=O)c5cc(F)c(F)cc5C4=C(C#N)C#N)sc23)C(=O)c2cc(F)c(F)cc21,[C][C][C][C][C][C][C][C][N][C][=Branch1][C][=O][C][C][=Branch2][#Branch2][Ring1][=C][Branch2][#Branch1][=N][C][=C][C][=C][Branch2][#Branch1][C][C][=C][C][=C][Branch2][Ring1][O][C][=C][C][Branch1][C][F][=C][Branch1][O][C][C][Branch1][Ring1][C][C][C][C][C][C][C][Branch1][C][F][=C][Ring1][S][C][S][C][Branch1][C][C][=C][C][=Ring1][=Branch1][C][Branch2][Ring1][O][C][=C][C][Branch1][C][F][=C][Branch1][O][C][C][Branch1][Ring1][C][C][C][C][C][C][C][Branch1][C][F][=C][Ring1][S][=C][Ring2][Ring2][#Branch2][S][Ring2][Ring2][=N][S][Ring2][Branch1][C][C][=N][N][Branch1][N][C][C][C][Branch1][Ring1][C][C][C][C][C][C][N][=C][Ring1][=C][C][=Ring2][=Branch1][Ring2][C][=C][C][=C][Branch1][C][C][S][Ring1][=Branch1][C][Ring2][=Branch1][=C][=O].[N][#C][C][Branch1][Ring1][C][#N][=C][/C][=Branch2][#Branch2][Branch1][=C][/C][=C][C][S][C][=C][Branch1][#Branch1][C][=Ring1][Branch1][S][Ring1][Branch2][C][Branch1][N][C][=C][C][=C][Branch1][C][Mo][C][=C][Ring1][#Branch1][Branch1][N][C][=C][C][=C][Branch1][C][Mo][C][=C][Ring1][#Branch1][C][=C][C][=C][Branch1][Branch2][C][=C][Ring1][=Branch1][Ring2][Ring1][=Branch2][C][Branch1][N][C][=C][C][=C][Branch1][C][Mo][C][=C][Ring1][#Branch1][Branch1][N][C][=C][C][=C][Branch1][C][Mo][C][=C][Ring1][#Branch1][C][=C][Ring2][Ring1][Branch1][S][C][C][=C][Branch2][Ring1][#C][/C][=C][\C][=Branch1][C][=O][C][=C][C][Branch1][C][F][=C][Branch1][C][F][C][=C][Ring1][Branch2][C][Ring1][N][=C][Branch1][Ring1][C][#N][C][#N][S][C][Ring2][Ring1][#Branch2][=Ring2][Ring1][#Branch1][C][=Branch1][C][=O][C][=C][C][Branch1][C][F][=C][Branch1][C][F][C][=C][Ring1][Branch2][Ring2][#Branch1][Ring1],{CCCCCCCCN1C(=O)c2c(c(-c3ccc(-c4cc5c(-c6cc(F)c(CC(CC)CCCC)c(F)c6)c6sc([$])cc6c(-c6cc(F)c(CC(CC)CCCC)c(F)c6)c5s4)s3)c3nn(CCC(CC)CCCC)nc3c2-c2ccc([$])s2)C1=O}.N#CC(C#N)=C1/C(=C/c2cc3sc4c(c3s2)C(c2ccc([Mo])cc2)(c2ccc([Mo])cc2)c2cc3c(cc2-4)C(c2ccc([Mo])cc2)(c2ccc([Mo])cc2)c2c-3sc3cc(/C=C4\C(=O)c5cc(F)c(F)cc5C4=C(C#N)C#N)sc23)C(=O)c2cc(F)c(F)cc21