Donor,Acceptor,HOMO_D_eV,LUMO_D_eV,HOMO_A_eV,LUMO_A_eV,D_A_ratio_m_m,solvent,solvent_additive,annealing_temperature,hole_contact_layer,electron_contact_layer,PCE_percent,calc_PCE_percent,Voc_V,FF_percent,Donor_BRICS,Acceptor_BRICS,DA_pair_BRICS,DA_tokenized_BRICS
PTB7-Th,IDIC,-5.204782608695651,-3.5391891891891896,-5.706,-4.002666666666667,1.0,CF,_,25.0,MoOx,ZnO,5.24,4.94,0.81,56.0,"[<rdkit.Chem.rdchem.Mol object at 0x7f5838c7b760>, <rdkit.Chem.rdchem.Mol object at 0x7f5838c7b140>, <rdkit.Chem.rdchem.Mol object at 0x7f5838c7a730>, <rdkit.Chem.rdchem.Mol object at 0x7f5838c7b0d0>, <rdkit.Chem.rdchem.Mol object at 0x7f5838c7aab0>, <rdkit.Chem.rdchem.Mol object at 0x7f5838c7b610>, <rdkit.Chem.rdchem.Mol object at 0x7f5838c7b450>]","[<rdkit.Chem.rdchem.Mol object at 0x7f5838c7b220>, <rdkit.Chem.rdchem.Mol object at 0x7f5838c7b680>, <rdkit.Chem.rdchem.Mol object at 0x7f5838c7a340>, <rdkit.Chem.rdchem.Mol object at 0x7f5838c786d0>]","[<rdkit.Chem.rdchem.Mol object at 0x7f5838c7b760>, <rdkit.Chem.rdchem.Mol object at 0x7f5838c7b140>, <rdkit.Chem.rdchem.Mol object at 0x7f5838c7a730>, <rdkit.Chem.rdchem.Mol object at 0x7f5838c7b0d0>, <rdkit.Chem.rdchem.Mol object at 0x7f5838c7aab0>, <rdkit.Chem.rdchem.Mol object at 0x7f5838c7b610>, <rdkit.Chem.rdchem.Mol object at 0x7f5838c7b450>, '.', <rdkit.Chem.rdchem.Mol object at 0x7f5838c7b220>, <rdkit.Chem.rdchem.Mol object at 0x7f5838c7b680>, <rdkit.Chem.rdchem.Mol object at 0x7f5838c7a340>, <rdkit.Chem.rdchem.Mol object at 0x7f5838c786d0>]","[0, 0, 0, 0, 0, 4547, 4548, 4549, 4550, 4551, 4552, 4553, 1, 4554, 4555, 4556, 4557]"
PTB7-Th,IEICO-4F,-5.204782608695651,-3.5391891891891896,-5.309971428571429,-3.851028571428572,0.667,CB,_,100.0,PEDOT:PSS,PFN-Br,10.0,9.95,0.74,59.0,"[<rdkit.Chem.rdchem.Mol object at 0x7f5838c7a2d0>, <rdkit.Chem.rdchem.Mol object at 0x7f5838c79e70>, <rdkit.Chem.rdchem.Mol object at 0x7f5838c78cf0>, <rdkit.Chem.rdchem.Mol object at 0x7f5838c787b0>, <rdkit.Chem.rdchem.Mol object at 0x7f5838c79930>, <rdkit.Chem.rdchem.Mol object at 0x7f5838c7a420>, <rdkit.Chem.rdchem.Mol object at 0x7f5838c7bb50>]","[<rdkit.Chem.rdchem.Mol object at 0x7f5838c7bc30>, <rdkit.Chem.rdchem.Mol object at 0x7f5838c7a490>, <rdkit.Chem.rdchem.Mol object at 0x7f5838c78b30>, <rdkit.Chem.rdchem.Mol object at 0x7f5838c7b920>, <rdkit.Chem.rdchem.Mol object at 0x7f5838c7bd10>, <rdkit.Chem.rdchem.Mol object at 0x7f5838c7bca0>, <rdkit.Chem.rdchem.Mol object at 0x7f5838c80510>, <rdkit.Chem.rdchem.Mol object at 0x7f5838c80350>]","[<rdkit.Chem.rdchem.Mol object at 0x7f5838c7a2d0>, <rdkit.Chem.rdchem.Mol object at 0x7f5838c79e70>, <rdkit.Chem.rdchem.Mol object at 0x7f5838c78cf0>, <rdkit.Chem.rdchem.Mol object at 0x7f5838c787b0>, <rdkit.Chem.rdchem.Mol object at 0x7f5838c79930>, <rdkit.Chem.rdchem.Mol object at 0x7f5838c7a420>, <rdkit.Chem.rdchem.Mol object at 0x7f5838c7bb50>, '.', <rdkit.Chem.rdchem.Mol object at 0x7f5838c7bc30>, <rdkit.Chem.rdchem.Mol object at 0x7f5838c7a490>, <rdkit.Chem.rdchem.Mol object at 0x7f5838c78b30>, <rdkit.Chem.rdchem.Mol object at 0x7f5838c7b920>, <rdkit.Chem.rdchem.Mol object at 0x7f5838c7bd10>, <rdkit.Chem.rdchem.Mol object at 0x7f5838c7bca0>, <rdkit.Chem.rdchem.Mol object at 0x7f5838c80510>, <rdkit.Chem.rdchem.Mol object at 0x7f5838c80350>]","[0, 4558, 4559, 4560, 4561, 4562, 4563, 4564, 1, 4565, 4566, 4567, 4568, 4569, 4570, 4571, 4572]"
PTB7-Th,SFBRCN,-5.204782608695651,-3.5391891891891896,-5.93,-3.86,0.833,CB,DIO,25.0,MoO3,ZnO,10.12,10.09,0.9,65.0,"[<rdkit.Chem.rdchem.Mol object at 0x7f5838c7be60>, <rdkit.Chem.rdchem.Mol object at 0x7f5838c7ba70>, <rdkit.Chem.rdchem.Mol object at 0x7f5838c7b840>, <rdkit.Chem.rdchem.Mol object at 0x7f5838c7bed0>, <rdkit.Chem.rdchem.Mol object at 0x7f5838c7bd80>, <rdkit.Chem.rdchem.Mol object at 0x7f5838c7b290>, <rdkit.Chem.rdchem.Mol object at 0x7f5838c80740>]","[<rdkit.Chem.rdchem.Mol object at 0x7f5838c79bd0>, <rdkit.Chem.rdchem.Mol object at 0x7f5838c7b7d0>, <rdkit.Chem.rdchem.Mol object at 0x7f5838c7bae0>, <rdkit.Chem.rdchem.Mol object at 0x7f5838c78580>, <rdkit.Chem.rdchem.Mol object at 0x7f5838c7bdf0>]","[<rdkit.Chem.rdchem.Mol object at 0x7f5838c7be60>, <rdkit.Chem.rdchem.Mol object at 0x7f5838c7ba70>, <rdkit.Chem.rdchem.Mol object at 0x7f5838c7b840>, <rdkit.Chem.rdchem.Mol object at 0x7f5838c7bed0>, <rdkit.Chem.rdchem.Mol object at 0x7f5838c7bd80>, <rdkit.Chem.rdchem.Mol object at 0x7f5838c7b290>, <rdkit.Chem.rdchem.Mol object at 0x7f5838c80740>, '.', <rdkit.Chem.rdchem.Mol object at 0x7f5838c79bd0>, <rdkit.Chem.rdchem.Mol object at 0x7f5838c7b7d0>, <rdkit.Chem.rdchem.Mol object at 0x7f5838c7bae0>, <rdkit.Chem.rdchem.Mol object at 0x7f5838c78580>, <rdkit.Chem.rdchem.Mol object at 0x7f5838c7bdf0>]","[0, 0, 0, 0, 4573, 4574, 4575, 4576, 4577, 4578, 4579, 1, 4580, 4581, 4582, 4583, 4584]"
PTQ10,IDIC,-5.54,-2.98,-5.706,-4.002666666666667,1.0,CF,_,140.0,PEDOT:PSS,PDINO,12.7,12.7,0.969,73.6,"[<rdkit.Chem.rdchem.Mol object at 0x7f5838c7ab90>, <rdkit.Chem.rdchem.Mol object at 0x7f5838c79d90>, <rdkit.Chem.rdchem.Mol object at 0x7f5838c7bbc0>, <rdkit.Chem.rdchem.Mol object at 0x7f5838c7b8b0>]","[<rdkit.Chem.rdchem.Mol object at 0x7f5838c7b990>, <rdkit.Chem.rdchem.Mol object at 0x7f5838c80120>, <rdkit.Chem.rdchem.Mol object at 0x7f5838c7b6f0>, <rdkit.Chem.rdchem.Mol object at 0x7f5838c80040>]","[<rdkit.Chem.rdchem.Mol object at 0x7f5838c7ab90>, <rdkit.Chem.rdchem.Mol object at 0x7f5838c79d90>, <rdkit.Chem.rdchem.Mol object at 0x7f5838c7bbc0>, <rdkit.Chem.rdchem.Mol object at 0x7f5838c7b8b0>, '.', <rdkit.Chem.rdchem.Mol object at 0x7f5838c7b990>, <rdkit.Chem.rdchem.Mol object at 0x7f5838c80120>, <rdkit.Chem.rdchem.Mol object at 0x7f5838c7b6f0>, <rdkit.Chem.rdchem.Mol object at 0x7f5838c80040>]","[0, 0, 0, 0, 0, 0, 0, 0, 4585, 4586, 4587, 4588, 1, 4589, 4590, 4591, 4592]"
PBDB-T,IDTIC,-5.297714285714285,-3.4170000000000003,-5.885,-3.91,1.0,CB,_,25.0,MoOx,ZnO/PFN-Br,5.67,6.01,0.84,56.3,"[<rdkit.Chem.rdchem.Mol object at 0x7f5838c7bf40>, <rdkit.Chem.rdchem.Mol object at 0x7f5838c805f0>, <rdkit.Chem.rdchem.Mol object at 0x7f5838c809e0>, <rdkit.Chem.rdchem.Mol object at 0x7f5838c80c80>, <rdkit.Chem.rdchem.Mol object at 0x7f5838c81690>]","[<rdkit.Chem.rdchem.Mol object at 0x7f5838c814d0>, <rdkit.Chem.rdchem.Mol object at 0x7f5838c80eb0>, <rdkit.Chem.rdchem.Mol object at 0x7f5838c7b4c0>, <rdkit.Chem.rdchem.Mol object at 0x7f5838c817e0>]","[<rdkit.Chem.rdchem.Mol object at 0x7f5838c7bf40>, <rdkit.Chem.rdchem.Mol object at 0x7f5838c805f0>, <rdkit.Chem.rdchem.Mol object at 0x7f5838c809e0>, <rdkit.Chem.rdchem.Mol object at 0x7f5838c80c80>, <rdkit.Chem.rdchem.Mol object at 0x7f5838c81690>, '.', <rdkit.Chem.rdchem.Mol object at 0x7f5838c814d0>, <rdkit.Chem.rdchem.Mol object at 0x7f5838c80eb0>, <rdkit.Chem.rdchem.Mol object at 0x7f5838c7b4c0>, <rdkit.Chem.rdchem.Mol object at 0x7f5838c817e0>]","[0, 0, 0, 0, 0, 0, 0, 4593, 4594, 4595, 4596, 4597, 1, 4598, 4599, 4600, 4601]"
PBDB-T,IDTTIC,-5.297714285714285,-3.4170000000000003,-5.68,-3.84,1.0,CB,_,25.0,MoOx,ZnO/PFN-Br,11.2,11.19,0.919,70.4,"[<rdkit.Chem.rdchem.Mol object at 0x7f5838c7b370>, <rdkit.Chem.rdchem.Mol object at 0x7f5838c81070>, <rdkit.Chem.rdchem.Mol object at 0x7f5838c80c10>, <rdkit.Chem.rdchem.Mol object at 0x7f5838c80190>, <rdkit.Chem.rdchem.Mol object at 0x7f5838c80f20>]","[<rdkit.Chem.rdchem.Mol object at 0x7f5838c81b60>, <rdkit.Chem.rdchem.Mol object at 0x7f5838c80a50>, <rdkit.Chem.rdchem.Mol object at 0x7f5838c81a10>, <rdkit.Chem.rdchem.Mol object at 0x7f5838c81d20>]","[<rdkit.Chem.rdchem.Mol object at 0x7f5838c7b370>, <rdkit.Chem.rdchem.Mol object at 0x7f5838c81070>, <rdkit.Chem.rdchem.Mol object at 0x7f5838c80c10>, <rdkit.Chem.rdchem.Mol object at 0x7f5838c80190>, <rdkit.Chem.rdchem.Mol object at 0x7f5838c80f20>, '.', <rdkit.Chem.rdchem.Mol object at 0x7f5838c81b60>, <rdkit.Chem.rdchem.Mol object at 0x7f5838c80a50>, <rdkit.Chem.rdchem.Mol object at 0x7f5838c81a10>, <rdkit.Chem.rdchem.Mol object at 0x7f5838c81d20>]","[0, 0, 0, 0, 0, 0, 0, 4602, 4603, 4604, 4605, 4606, 1, 4607, 4608, 4609, 4610]"
PTB7-Th,ITIC,-5.204782608695651,-3.5391891891891896,-5.574146341463415,-3.915,0.667,CB,_,25.0,MoOx,ZnO,7.62,7.62,0.822,66.2,"[<rdkit.Chem.rdchem.Mol object at 0x7f5838c7b5a0>, <rdkit.Chem.rdchem.Mol object at 0x7f5838c81380>, <rdkit.Chem.rdchem.Mol object at 0x7f5838c80430>, <rdkit.Chem.rdchem.Mol object at 0x7f5838c81c40>, <rdkit.Chem.rdchem.Mol object at 0x7f5838c81af0>, <rdkit.Chem.rdchem.Mol object at 0x7f5838c81e00>, <rdkit.Chem.rdchem.Mol object at 0x7f5838c812a0>]","[<rdkit.Chem.rdchem.Mol object at 0x7f5838c80ba0>, <rdkit.Chem.rdchem.Mol object at 0x7f5838c80660>, <rdkit.Chem.rdchem.Mol object at 0x7f5838c81930>, <rdkit.Chem.rdchem.Mol object at 0x7f5838c80970>, <rdkit.Chem.rdchem.Mol object at 0x7f5838c80cf0>]","[<rdkit.Chem.rdchem.Mol object at 0x7f5838c7b5a0>, <rdkit.Chem.rdchem.Mol object at 0x7f5838c81380>, <rdkit.Chem.rdchem.Mol object at 0x7f5838c80430>, <rdkit.Chem.rdchem.Mol object at 0x7f5838c81c40>, <rdkit.Chem.rdchem.Mol object at 0x7f5838c81af0>, <rdkit.Chem.rdchem.Mol object at 0x7f5838c81e00>, <rdkit.Chem.rdchem.Mol object at 0x7f5838c812a0>, '.', <rdkit.Chem.rdchem.Mol object at 0x7f5838c80ba0>, <rdkit.Chem.rdchem.Mol object at 0x7f5838c80660>, <rdkit.Chem.rdchem.Mol object at 0x7f5838c81930>, <rdkit.Chem.rdchem.Mol object at 0x7f5838c80970>, <rdkit.Chem.rdchem.Mol object at 0x7f5838c80cf0>]","[0, 0, 0, 0, 4611, 4612, 4613, 4614, 4615, 4616, 4617, 1, 4618, 4619, 4620, 4621, 4622]"
PBT1-C,TPT-2F,-5.449999999999999,-3.41,-5.84,-4.06,1.0,CF,DIO,100.0,MoOx,ZnO,8.33,9.28,0.974,68.6,"[<rdkit.Chem.rdchem.Mol object at 0x7f5838c7ad50>, <rdkit.Chem.rdchem.Mol object at 0x7f5838c83530>, <rdkit.Chem.rdchem.Mol object at 0x7f5838c83450>, <rdkit.Chem.rdchem.Mol object at 0x7f5838c82ff0>, <rdkit.Chem.rdchem.Mol object at 0x7f5838c82f10>, <rdkit.Chem.rdchem.Mol object at 0x7f5838c82a40>, <rdkit.Chem.rdchem.Mol object at 0x7f5838c831b0>, <rdkit.Chem.rdchem.Mol object at 0x7f5838c829d0>, <rdkit.Chem.rdchem.Mol object at 0x7f5838c82650>]","[<rdkit.Chem.rdchem.Mol object at 0x7f5838c82b90>, <rdkit.Chem.rdchem.Mol object at 0x7f5838c83370>, <rdkit.Chem.rdchem.Mol object at 0x7f5838c83610>, <rdkit.Chem.rdchem.Mol object at 0x7f5838c833e0>, <rdkit.Chem.rdchem.Mol object at 0x7f5838c82c00>]","[<rdkit.Chem.rdchem.Mol object at 0x7f5838c7ad50>, <rdkit.Chem.rdchem.Mol object at 0x7f5838c83530>, <rdkit.Chem.rdchem.Mol object at 0x7f5838c83450>, <rdkit.Chem.rdchem.Mol object at 0x7f5838c82ff0>, <rdkit.Chem.rdchem.Mol object at 0x7f5838c82f10>, <rdkit.Chem.rdchem.Mol object at 0x7f5838c82a40>, <rdkit.Chem.rdchem.Mol object at 0x7f5838c831b0>, <rdkit.Chem.rdchem.Mol object at 0x7f5838c829d0>, <rdkit.Chem.rdchem.Mol object at 0x7f5838c82650>, '.', <rdkit.Chem.rdchem.Mol object at 0x7f5838c82b90>, <rdkit.Chem.rdchem.Mol object at 0x7f5838c83370>, <rdkit.Chem.rdchem.Mol object at 0x7f5838c83610>, <rdkit.Chem.rdchem.Mol object at 0x7f5838c833e0>, <rdkit.Chem.rdchem.Mol object at 0x7f5838c82c00>]","[0, 0, 4633, 4634, 4635, 4636, 4637, 4638, 4639, 4640, 4641, 1, 4642, 4643, 4644, 4645, 4646]"
PBDB-T,4TIC-4F,-5.297714285714285,-3.4170000000000003,-5.6,-4.21,1.0,CB,_,130.0,PEDOT:PSS,C60-bissalt,7.99,7.99,0.652,57.0,"[<rdkit.Chem.rdchem.Mol object at 0x7f5838c826c0>, <rdkit.Chem.rdchem.Mol object at 0x7f5838c82ce0>, <rdkit.Chem.rdchem.Mol object at 0x7f5838c82810>, <rdkit.Chem.rdchem.Mol object at 0x7f5838c81fc0>, <rdkit.Chem.rdchem.Mol object at 0x7f5838c81150>]","[<rdkit.Chem.rdchem.Mol object at 0x7f5838c80e40>, <rdkit.Chem.rdchem.Mol object at 0x7f5838c81cb0>, <rdkit.Chem.rdchem.Mol object at 0x7f5838c83220>, <rdkit.Chem.rdchem.Mol object at 0x7f5838c82500>, <rdkit.Chem.rdchem.Mol object at 0x7f5838c82960>]","[<rdkit.Chem.rdchem.Mol object at 0x7f5838c826c0>, <rdkit.Chem.rdchem.Mol object at 0x7f5838c82ce0>, <rdkit.Chem.rdchem.Mol object at 0x7f5838c82810>, <rdkit.Chem.rdchem.Mol object at 0x7f5838c81fc0>, <rdkit.Chem.rdchem.Mol object at 0x7f5838c81150>, '.', <rdkit.Chem.rdchem.Mol object at 0x7f5838c80e40>, <rdkit.Chem.rdchem.Mol object at 0x7f5838c81cb0>, <rdkit.Chem.rdchem.Mol object at 0x7f5838c83220>, <rdkit.Chem.rdchem.Mol object at 0x7f5838c82500>, <rdkit.Chem.rdchem.Mol object at 0x7f5838c82960>]","[0, 0, 0, 0, 0, 0, 4647, 4648, 4649, 4650, 4651, 1, 4652, 4653, 4654, 4655, 4656]"
PBDB-T,ITBTR-C2,-5.297714285714285,-3.4170000000000003,-5.3,-3.7,1.0,CB,DIO,25.0,MoOx,ZnO,6.96,6.96,0.89,58.42,"[<rdkit.Chem.rdchem.Mol object at 0x7f5838c82ea0>, <rdkit.Chem.rdchem.Mol object at 0x7f5838c819a0>, <rdkit.Chem.rdchem.Mol object at 0x7f5838c813f0>, <rdkit.Chem.rdchem.Mol object at 0x7f5838c82260>, <rdkit.Chem.rdchem.Mol object at 0x7f5838c83920>]","[<rdkit.Chem.rdchem.Mol object at 0x7f5838c81bd0>, <rdkit.Chem.rdchem.Mol object at 0x7f5838c83c30>, <rdkit.Chem.rdchem.Mol object at 0x7f5838c800b0>, <rdkit.Chem.rdchem.Mol object at 0x7f5838c834c0>]","[<rdkit.Chem.rdchem.Mol object at 0x7f5838c82ea0>, <rdkit.Chem.rdchem.Mol object at 0x7f5838c819a0>, <rdkit.Chem.rdchem.Mol object at 0x7f5838c813f0>, <rdkit.Chem.rdchem.Mol object at 0x7f5838c82260>, <rdkit.Chem.rdchem.Mol object at 0x7f5838c83920>, '.', <rdkit.Chem.rdchem.Mol object at 0x7f5838c81bd0>, <rdkit.Chem.rdchem.Mol object at 0x7f5838c83c30>, <rdkit.Chem.rdchem.Mol object at 0x7f5838c800b0>, <rdkit.Chem.rdchem.Mol object at 0x7f5838c834c0>]","[0, 0, 0, 0, 0, 0, 0, 4667, 4668, 4669, 4670, 4671, 1, 4672, 4673, 4674, 4675]"
PBDB-T,ITBTR-C8,-5.297714285714285,-3.4170000000000003,-5.28,-3.7,1.0,CB,DIO,25.0,MoOx,ZnO,7.85,7.76,0.9,58.47,"[<rdkit.Chem.rdchem.Mol object at 0x7f5838c81700>, <rdkit.Chem.rdchem.Mol object at 0x7f5838c83df0>, <rdkit.Chem.rdchem.Mol object at 0x7f5838c82d50>, <rdkit.Chem.rdchem.Mol object at 0x7f5838c82420>, <rdkit.Chem.rdchem.Mol object at 0x7f5838c88190>]","[<rdkit.Chem.rdchem.Mol object at 0x7f5838c83f40>, <rdkit.Chem.rdchem.Mol object at 0x7f5838c82110>, <rdkit.Chem.rdchem.Mol object at 0x7f5838c80270>, <rdkit.Chem.rdchem.Mol object at 0x7f5838c80ac0>]","[<rdkit.Chem.rdchem.Mol object at 0x7f5838c81700>, <rdkit.Chem.rdchem.Mol object at 0x7f5838c83df0>, <rdkit.Chem.rdchem.Mol object at 0x7f5838c82d50>, <rdkit.Chem.rdchem.Mol object at 0x7f5838c82420>, <rdkit.Chem.rdchem.Mol object at 0x7f5838c88190>, '.', <rdkit.Chem.rdchem.Mol object at 0x7f5838c83f40>, <rdkit.Chem.rdchem.Mol object at 0x7f5838c82110>, <rdkit.Chem.rdchem.Mol object at 0x7f5838c80270>, <rdkit.Chem.rdchem.Mol object at 0x7f5838c80ac0>]","[0, 0, 0, 0, 0, 0, 0, 4693, 4694, 4695, 4696, 4697, 1, 4698, 4699, 4700, 4701]"
PBDB-T2Cl,IDIC-4F,-5.510000000000001,-3.57,-5.73,-3.93,1.0,CB,DIO,25.0,MoOx,ZnO,7.1,7.08,0.88,61.91,"[<rdkit.Chem.rdchem.Mol object at 0x7f5838c82570>, <rdkit.Chem.rdchem.Mol object at 0x7f5838c88970>, <rdkit.Chem.rdchem.Mol object at 0x7f5838c88430>, <rdkit.Chem.rdchem.Mol object at 0x7f5838c88350>, <rdkit.Chem.rdchem.Mol object at 0x7f5838c883c0>, <rdkit.Chem.rdchem.Mol object at 0x7f5838c88040>]","[<rdkit.Chem.rdchem.Mol object at 0x7f5838c83b50>, <rdkit.Chem.rdchem.Mol object at 0x7f5838c89380>, <rdkit.Chem.rdchem.Mol object at 0x7f5838c82730>, <rdkit.Chem.rdchem.Mol object at 0x7f5838c830d0>, <rdkit.Chem.rdchem.Mol object at 0x7f5838c88120>]","[<rdkit.Chem.rdchem.Mol object at 0x7f5838c82570>, <rdkit.Chem.rdchem.Mol object at 0x7f5838c88970>, <rdkit.Chem.rdchem.Mol object at 0x7f5838c88430>, <rdkit.Chem.rdchem.Mol object at 0x7f5838c88350>, <rdkit.Chem.rdchem.Mol object at 0x7f5838c883c0>, <rdkit.Chem.rdchem.Mol object at 0x7f5838c88040>, '.', <rdkit.Chem.rdchem.Mol object at 0x7f5838c83b50>, <rdkit.Chem.rdchem.Mol object at 0x7f5838c89380>, <rdkit.Chem.rdchem.Mol object at 0x7f5838c82730>, <rdkit.Chem.rdchem.Mol object at 0x7f5838c830d0>, <rdkit.Chem.rdchem.Mol object at 0x7f5838c88120>]","[0, 0, 0, 0, 0, 4713, 4714, 4715, 4716, 4717, 4718, 1, 4719, 4720, 4721, 4722, 4723]"
PBDB-T,IT-M,-5.297714285714285,-3.4170000000000003,-5.513571428571429,-3.808,1.0,CB,_,100.0,PEDOT:PSS,PFN-Br,11.74,11.72,0.95,72.0,"[<rdkit.Chem.rdchem.Mol object at 0x7f5838c83bc0>, <rdkit.Chem.rdchem.Mol object at 0x7f5838c889e0>, <rdkit.Chem.rdchem.Mol object at 0x7f5838c898c0>, <rdkit.Chem.rdchem.Mol object at 0x7f5838c88c10>, <rdkit.Chem.rdchem.Mol object at 0x7f5838c89c40>]","[<rdkit.Chem.rdchem.Mol object at 0x7f5838c837d0>, <rdkit.Chem.rdchem.Mol object at 0x7f5838c89a10>, <rdkit.Chem.rdchem.Mol object at 0x7f5838c83d80>, <rdkit.Chem.rdchem.Mol object at 0x7f5838c89f50>, <rdkit.Chem.rdchem.Mol object at 0x7f5838c884a0>]","[<rdkit.Chem.rdchem.Mol object at 0x7f5838c83bc0>, <rdkit.Chem.rdchem.Mol object at 0x7f5838c889e0>, <rdkit.Chem.rdchem.Mol object at 0x7f5838c898c0>, <rdkit.Chem.rdchem.Mol object at 0x7f5838c88c10>, <rdkit.Chem.rdchem.Mol object at 0x7f5838c89c40>, '.', <rdkit.Chem.rdchem.Mol object at 0x7f5838c837d0>, <rdkit.Chem.rdchem.Mol object at 0x7f5838c89a10>, <rdkit.Chem.rdchem.Mol object at 0x7f5838c83d80>, <rdkit.Chem.rdchem.Mol object at 0x7f5838c89f50>, <rdkit.Chem.rdchem.Mol object at 0x7f5838c884a0>]","[0, 0, 0, 0, 0, 0, 4735, 4736, 4737, 4738, 4739, 1, 4740, 4741, 4742, 4743, 4744]"
PBDB-T,IDT-O-IC,-5.297714285714285,-3.4170000000000003,-5.77,-3.79,0.833,o-DCB,_,25.0,MoOx,ZnO,6.23,6.22,0.84,63.0,"[<rdkit.Chem.rdchem.Mol object at 0x7f5838c83760>, <rdkit.Chem.rdchem.Mol object at 0x7f5838c89bd0>, <rdkit.Chem.rdchem.Mol object at 0x7f5838c8a730>, <rdkit.Chem.rdchem.Mol object at 0x7f5838c8b7d0>, <rdkit.Chem.rdchem.Mol object at 0x7f5838c94190>]","[<rdkit.Chem.rdchem.Mol object at 0x7f5838c8be60>, <rdkit.Chem.rdchem.Mol object at 0x7f5838c8bca0>, <rdkit.Chem.rdchem.Mol object at 0x7f5838c88510>, <rdkit.Chem.rdchem.Mol object at 0x7f5838c8af80>, <rdkit.Chem.rdchem.Mol object at 0x7f5838c8b840>, <rdkit.Chem.rdchem.Mol object at 0x7f5838c8b4c0>]","[<rdkit.Chem.rdchem.Mol object at 0x7f5838c83760>, <rdkit.Chem.rdchem.Mol object at 0x7f5838c89bd0>, <rdkit.Chem.rdchem.Mol object at 0x7f5838c8a730>, <rdkit.Chem.rdchem.Mol object at 0x7f5838c8b7d0>, <rdkit.Chem.rdchem.Mol object at 0x7f5838c94190>, '.', <rdkit.Chem.rdchem.Mol object at 0x7f5838c8be60>, <rdkit.Chem.rdchem.Mol object at 0x7f5838c8bca0>, <rdkit.Chem.rdchem.Mol object at 0x7f5838c88510>, <rdkit.Chem.rdchem.Mol object at 0x7f5838c8af80>, <rdkit.Chem.rdchem.Mol object at 0x7f5838c8b840>, <rdkit.Chem.rdchem.Mol object at 0x7f5838c8b4c0>]","[0, 0, 0, 0, 0, 4818, 4819, 4820, 4821, 4822, 1, 4823, 4824, 4825, 4826, 4827, 4828]"
PBDB-T,spiro-IDT-O-IC,-5.297714285714285,-3.4170000000000003,-5.68,-3.79,0.556,o-DCB,_,25.0,MoOx,ZnO,4.74,4.71,0.83,55.0,"[<rdkit.Chem.rdchem.Mol object at 0x7f5838c8b3e0>, <rdkit.Chem.rdchem.Mol object at 0x7f5838c8b8b0>, <rdkit.Chem.rdchem.Mol object at 0x7f5838c8b990>, <rdkit.Chem.rdchem.Mol object at 0x7f5838c8bae0>, <rdkit.Chem.rdchem.Mol object at 0x7f5838c94430>]","[<rdkit.Chem.rdchem.Mol object at 0x7f5838c8bf40>, <rdkit.Chem.rdchem.Mol object at 0x7f5838c88820>, <rdkit.Chem.rdchem.Mol object at 0x7f5838c8bdf0>, <rdkit.Chem.rdchem.Mol object at 0x7f5838c89fc0>, <rdkit.Chem.rdchem.Mol object at 0x7f5838c8ba70>, <rdkit.Chem.rdchem.Mol object at 0x7f5838c94970>]","[<rdkit.Chem.rdchem.Mol object at 0x7f5838c8b3e0>, <rdkit.Chem.rdchem.Mol object at 0x7f5838c8b8b0>, <rdkit.Chem.rdchem.Mol object at 0x7f5838c8b990>, <rdkit.Chem.rdchem.Mol object at 0x7f5838c8bae0>, <rdkit.Chem.rdchem.Mol object at 0x7f5838c94430>, '.', <rdkit.Chem.rdchem.Mol object at 0x7f5838c8bf40>, <rdkit.Chem.rdchem.Mol object at 0x7f5838c88820>, <rdkit.Chem.rdchem.Mol object at 0x7f5838c8bdf0>, <rdkit.Chem.rdchem.Mol object at 0x7f5838c89fc0>, <rdkit.Chem.rdchem.Mol object at 0x7f5838c8ba70>, <rdkit.Chem.rdchem.Mol object at 0x7f5838c94970>]","[0, 0, 0, 0, 0, 4829, 4830, 4831, 4832, 4833, 1, 4834, 4835, 4836, 4837, 4838, 4839]"