Donor,Acceptor,HOMO_D_eV,LUMO_D_eV,HOMO_A_eV,LUMO_A_eV,D_A_ratio_m_m,solvent,solvent_additive,annealing_temperature,hole_contact_layer,electron_contact_layer,PCE_percent,calc_PCE_percent,Voc_V,FF_percent,Donor_BRICS,Acceptor_BRICS,DA_pair_BRICS,DA_tokenized_BRICS
PBDB-T,ITIC,-5.297714285714285,-3.4170000000000003,-5.574146341463415,-3.915,1.0,CB,DIO,100.0,PEDOT:PSS,PFN-Br,10.6,10.59,0.93,67.0,"[<rdkit.Chem.rdchem.Mol object at 0x7f5838f3bd80>, <rdkit.Chem.rdchem.Mol object at 0x7f5838f46d50>, <rdkit.Chem.rdchem.Mol object at 0x7f5838f46f10>, <rdkit.Chem.rdchem.Mol object at 0x7f5838f471b0>, <rdkit.Chem.rdchem.Mol object at 0x7f5838f47bc0>]","[<rdkit.Chem.rdchem.Mol object at 0x7f5838f47df0>, <rdkit.Chem.rdchem.Mol object at 0x7f5838f47370>, <rdkit.Chem.rdchem.Mol object at 0x7f5838f46e30>, <rdkit.Chem.rdchem.Mol object at 0x7f5838f47300>, <rdkit.Chem.rdchem.Mol object at 0x7f5838f46ce0>]","[<rdkit.Chem.rdchem.Mol object at 0x7f5838f3bd80>, <rdkit.Chem.rdchem.Mol object at 0x7f5838f46d50>, <rdkit.Chem.rdchem.Mol object at 0x7f5838f46f10>, <rdkit.Chem.rdchem.Mol object at 0x7f5838f471b0>, <rdkit.Chem.rdchem.Mol object at 0x7f5838f47bc0>, '.', <rdkit.Chem.rdchem.Mol object at 0x7f5838f47df0>, <rdkit.Chem.rdchem.Mol object at 0x7f5838f47370>, <rdkit.Chem.rdchem.Mol object at 0x7f5838f46e30>, <rdkit.Chem.rdchem.Mol object at 0x7f5838f47300>, <rdkit.Chem.rdchem.Mol object at 0x7f5838f46ce0>]","[0, 0, 0, 0, 0, 0, 1207, 1208, 1209, 1210, 1211, 1, 1212, 1213, 1214, 1215, 1216]"
PBDB-T,ITCC,-5.297714285714285,-3.4170000000000003,-5.47,-3.76,1.0,CB,DIO,100.0,PEDOT:PSS,PFN-Br,11.4,11.4,1.01,71.0,"[<rdkit.Chem.rdchem.Mol object at 0x7f5838f46650>, <rdkit.Chem.rdchem.Mol object at 0x7f5838f476f0>, <rdkit.Chem.rdchem.Mol object at 0x7f5838f47760>, <rdkit.Chem.rdchem.Mol object at 0x7f5838f46b90>, <rdkit.Chem.rdchem.Mol object at 0x7f5838f47840>]","[<rdkit.Chem.rdchem.Mol object at 0x7f5838f478b0>, <rdkit.Chem.rdchem.Mol object at 0x7f5838f47a70>, <rdkit.Chem.rdchem.Mol object at 0x7f5838f47ed0>, <rdkit.Chem.rdchem.Mol object at 0x7f5838f470d0>, <rdkit.Chem.rdchem.Mol object at 0x7f5838f46c70>]","[<rdkit.Chem.rdchem.Mol object at 0x7f5838f46650>, <rdkit.Chem.rdchem.Mol object at 0x7f5838f476f0>, <rdkit.Chem.rdchem.Mol object at 0x7f5838f47760>, <rdkit.Chem.rdchem.Mol object at 0x7f5838f46b90>, <rdkit.Chem.rdchem.Mol object at 0x7f5838f47840>, '.', <rdkit.Chem.rdchem.Mol object at 0x7f5838f478b0>, <rdkit.Chem.rdchem.Mol object at 0x7f5838f47a70>, <rdkit.Chem.rdchem.Mol object at 0x7f5838f47ed0>, <rdkit.Chem.rdchem.Mol object at 0x7f5838f470d0>, <rdkit.Chem.rdchem.Mol object at 0x7f5838f46c70>]","[0, 0, 0, 0, 0, 0, 1217, 1218, 1219, 1220, 1221, 1, 1222, 1223, 1224, 1225, 1226]"
PBDTTT-E-T,IEIC,-5.09,-3.48,-5.455,-3.8625,0.667,CB,DIO,100.0,PEDOT:PSS,PFN-Br,4.9,4.95,0.9,47.0,"[<rdkit.Chem.rdchem.Mol object at 0x7f5838f47d10>, <rdkit.Chem.rdchem.Mol object at 0x7f5838f477d0>, <rdkit.Chem.rdchem.Mol object at 0x7f5838f46340>, <rdkit.Chem.rdchem.Mol object at 0x7f5838f475a0>, <rdkit.Chem.rdchem.Mol object at 0x7f5838f47920>, <rdkit.Chem.rdchem.Mol object at 0x7f5838f45770>, <rdkit.Chem.rdchem.Mol object at 0x7f5838f47d80>]","[<rdkit.Chem.rdchem.Mol object at 0x7f5838f46730>, <rdkit.Chem.rdchem.Mol object at 0x7f5838f46f80>, <rdkit.Chem.rdchem.Mol object at 0x7f5838f46500>, <rdkit.Chem.rdchem.Mol object at 0x7f5838f47680>, <rdkit.Chem.rdchem.Mol object at 0x7f5838f46ea0>, <rdkit.Chem.rdchem.Mol object at 0x7f5838f4daf0>, <rdkit.Chem.rdchem.Mol object at 0x7f5838f46ab0>]","[<rdkit.Chem.rdchem.Mol object at 0x7f5838f47d10>, <rdkit.Chem.rdchem.Mol object at 0x7f5838f477d0>, <rdkit.Chem.rdchem.Mol object at 0x7f5838f46340>, <rdkit.Chem.rdchem.Mol object at 0x7f5838f475a0>, <rdkit.Chem.rdchem.Mol object at 0x7f5838f47920>, <rdkit.Chem.rdchem.Mol object at 0x7f5838f45770>, <rdkit.Chem.rdchem.Mol object at 0x7f5838f47d80>, '.', <rdkit.Chem.rdchem.Mol object at 0x7f5838f46730>, <rdkit.Chem.rdchem.Mol object at 0x7f5838f46f80>, <rdkit.Chem.rdchem.Mol object at 0x7f5838f46500>, <rdkit.Chem.rdchem.Mol object at 0x7f5838f47680>, <rdkit.Chem.rdchem.Mol object at 0x7f5838f46ea0>, <rdkit.Chem.rdchem.Mol object at 0x7f5838f4daf0>, <rdkit.Chem.rdchem.Mol object at 0x7f5838f46ab0>]","[0, 0, 1227, 1228, 1229, 1230, 1231, 1232, 1233, 1, 1234, 1235, 1236, 1237, 1238, 1239, 1240]"
PTB7-Th,IEICO,-5.204782608695651,-3.5391891891891896,-5.32,-3.95,1.0,CB,DIO,100.0,PEDOT:PSS,PFN-Br,7.3,7.32,0.91,60.5,"[<rdkit.Chem.rdchem.Mol object at 0x7f5838f45fc0>, <rdkit.Chem.rdchem.Mol object at 0x7f5838f474c0>, <rdkit.Chem.rdchem.Mol object at 0x7f5838f4c200>, <rdkit.Chem.rdchem.Mol object at 0x7f5838f4cf90>, <rdkit.Chem.rdchem.Mol object at 0x7f5838f4c510>, <rdkit.Chem.rdchem.Mol object at 0x7f5838f4cc80>, <rdkit.Chem.rdchem.Mol object at 0x7f5838f4d5b0>]","[<rdkit.Chem.rdchem.Mol object at 0x7f5838f46880>, <rdkit.Chem.rdchem.Mol object at 0x7f5838f4cf20>, <rdkit.Chem.rdchem.Mol object at 0x7f5838f4cb30>, <rdkit.Chem.rdchem.Mol object at 0x7f5838f4cdd0>, <rdkit.Chem.rdchem.Mol object at 0x7f5838f4d000>, <rdkit.Chem.rdchem.Mol object at 0x7f5838f4db60>, <rdkit.Chem.rdchem.Mol object at 0x7f5838f4c5f0>, <rdkit.Chem.rdchem.Mol object at 0x7f5838f4c820>]","[<rdkit.Chem.rdchem.Mol object at 0x7f5838f45fc0>, <rdkit.Chem.rdchem.Mol object at 0x7f5838f474c0>, <rdkit.Chem.rdchem.Mol object at 0x7f5838f4c200>, <rdkit.Chem.rdchem.Mol object at 0x7f5838f4cf90>, <rdkit.Chem.rdchem.Mol object at 0x7f5838f4c510>, <rdkit.Chem.rdchem.Mol object at 0x7f5838f4cc80>, <rdkit.Chem.rdchem.Mol object at 0x7f5838f4d5b0>, '.', <rdkit.Chem.rdchem.Mol object at 0x7f5838f46880>, <rdkit.Chem.rdchem.Mol object at 0x7f5838f4cf20>, <rdkit.Chem.rdchem.Mol object at 0x7f5838f4cb30>, <rdkit.Chem.rdchem.Mol object at 0x7f5838f4cdd0>, <rdkit.Chem.rdchem.Mol object at 0x7f5838f4d000>, <rdkit.Chem.rdchem.Mol object at 0x7f5838f4db60>, <rdkit.Chem.rdchem.Mol object at 0x7f5838f4c5f0>, <rdkit.Chem.rdchem.Mol object at 0x7f5838f4c820>]","[0, 1271, 1272, 1273, 1274, 1275, 1276, 1277, 1, 1278, 1279, 1280, 1281, 1282, 1283, 1284, 1285]"
PTB7-Th,IHIC,-5.204782608695651,-3.5391891891891896,-5.45,-3.93,0.667,DCB,CN,25.0,MoOx,ZnO,9.41,7.75,0.744,60.9,"[<rdkit.Chem.rdchem.Mol object at 0x7f5838f4e180>, <rdkit.Chem.rdchem.Mol object at 0x7f5838f4e6c0>, <rdkit.Chem.rdchem.Mol object at 0x7f5838f4c740>, <rdkit.Chem.rdchem.Mol object at 0x7f5838f4e5e0>, <rdkit.Chem.rdchem.Mol object at 0x7f5838f4c580>, <rdkit.Chem.rdchem.Mol object at 0x7f5838f4e110>, <rdkit.Chem.rdchem.Mol object at 0x7f5838f4d1c0>]","[<rdkit.Chem.rdchem.Mol object at 0x7f5838f4dbd0>, <rdkit.Chem.rdchem.Mol object at 0x7f5838f4c270>, <rdkit.Chem.rdchem.Mol object at 0x7f5838f4d700>, <rdkit.Chem.rdchem.Mol object at 0x7f5838f4d850>, <rdkit.Chem.rdchem.Mol object at 0x7f5838f4c040>]","[<rdkit.Chem.rdchem.Mol object at 0x7f5838f4e180>, <rdkit.Chem.rdchem.Mol object at 0x7f5838f4e6c0>, <rdkit.Chem.rdchem.Mol object at 0x7f5838f4c740>, <rdkit.Chem.rdchem.Mol object at 0x7f5838f4e5e0>, <rdkit.Chem.rdchem.Mol object at 0x7f5838f4c580>, <rdkit.Chem.rdchem.Mol object at 0x7f5838f4e110>, <rdkit.Chem.rdchem.Mol object at 0x7f5838f4d1c0>, '.', <rdkit.Chem.rdchem.Mol object at 0x7f5838f4dbd0>, <rdkit.Chem.rdchem.Mol object at 0x7f5838f4c270>, <rdkit.Chem.rdchem.Mol object at 0x7f5838f4d700>, <rdkit.Chem.rdchem.Mol object at 0x7f5838f4d850>, <rdkit.Chem.rdchem.Mol object at 0x7f5838f4c040>]","[0, 0, 0, 0, 1310, 1311, 1312, 1313, 1314, 1315, 1316, 1, 1317, 1318, 1319, 1320, 1321]"
P3HT,N3,-5.057777777777777,-2.989444444444445,-5.76,-3.97,0.833,o-DCB,_,25.0,PEDOT:PSS,Ca,4.62,4.63,0.87,60.0,"[<rdkit.Chem.rdchem.Mol object at 0x7f5838f4e8f0>, <rdkit.Chem.rdchem.Mol object at 0x7f5838f4e260>, <rdkit.Chem.rdchem.Mol object at 0x7f5838f4e500>, <rdkit.Chem.rdchem.Mol object at 0x7f5838f4e880>]","[<rdkit.Chem.rdchem.Mol object at 0x7f5838f4e730>, <rdkit.Chem.rdchem.Mol object at 0x7f5838f4e650>, <rdkit.Chem.rdchem.Mol object at 0x7f5838f4de00>, <rdkit.Chem.rdchem.Mol object at 0x7f5838f4c430>, <rdkit.Chem.rdchem.Mol object at 0x7f5838f4dc40>, <rdkit.Chem.rdchem.Mol object at 0x7f5838f4ca50>]","[<rdkit.Chem.rdchem.Mol object at 0x7f5838f4e8f0>, <rdkit.Chem.rdchem.Mol object at 0x7f5838f4e260>, <rdkit.Chem.rdchem.Mol object at 0x7f5838f4e500>, <rdkit.Chem.rdchem.Mol object at 0x7f5838f4e880>, '.', <rdkit.Chem.rdchem.Mol object at 0x7f5838f4e730>, <rdkit.Chem.rdchem.Mol object at 0x7f5838f4e650>, <rdkit.Chem.rdchem.Mol object at 0x7f5838f4de00>, <rdkit.Chem.rdchem.Mol object at 0x7f5838f4c430>, <rdkit.Chem.rdchem.Mol object at 0x7f5838f4dc40>, <rdkit.Chem.rdchem.Mol object at 0x7f5838f4ca50>]","[0, 0, 0, 0, 0, 0, 1322, 1323, 1324, 1325, 1, 1326, 1327, 1328, 1329, 1330, 1331]"
P3HT,N4,-5.057777777777777,-2.989444444444445,-5.54,-3.67,0.833,o-DCB,_,25.0,PEDOT:PSS,Ca,3.52,3.53,0.91,58.0,"[<rdkit.Chem.rdchem.Mol object at 0x7f5838f4c970>, <rdkit.Chem.rdchem.Mol object at 0x7f5838f4e3b0>, <rdkit.Chem.rdchem.Mol object at 0x7f5838f4ed50>, <rdkit.Chem.rdchem.Mol object at 0x7f5838f4dcb0>]","[<rdkit.Chem.rdchem.Mol object at 0x7f5838f4ef10>, <rdkit.Chem.rdchem.Mol object at 0x7f5838f4ece0>, <rdkit.Chem.rdchem.Mol object at 0x7f5838f4df50>, <rdkit.Chem.rdchem.Mol object at 0x7f5838f4e420>, <rdkit.Chem.rdchem.Mol object at 0x7f5838f4e340>]","[<rdkit.Chem.rdchem.Mol object at 0x7f5838f4c970>, <rdkit.Chem.rdchem.Mol object at 0x7f5838f4e3b0>, <rdkit.Chem.rdchem.Mol object at 0x7f5838f4ed50>, <rdkit.Chem.rdchem.Mol object at 0x7f5838f4dcb0>, '.', <rdkit.Chem.rdchem.Mol object at 0x7f5838f4ef10>, <rdkit.Chem.rdchem.Mol object at 0x7f5838f4ece0>, <rdkit.Chem.rdchem.Mol object at 0x7f5838f4df50>, <rdkit.Chem.rdchem.Mol object at 0x7f5838f4e420>, <rdkit.Chem.rdchem.Mol object at 0x7f5838f4e340>]","[0, 0, 0, 0, 0, 0, 0, 1332, 1333, 1334, 1335, 1, 1336, 1337, 1338, 1339, 1340]"
P3HT,N5,-5.057777777777777,-2.989444444444445,-6.34,-3.73,0.833,o-DCB,_,25.0,PEDOT:PSS,Ca,4.03,4.02,0.97,59.0,"[<rdkit.Chem.rdchem.Mol object at 0x7f5838f4d930>, <rdkit.Chem.rdchem.Mol object at 0x7f5838f4e960>, <rdkit.Chem.rdchem.Mol object at 0x7f5838f4f140>, <rdkit.Chem.rdchem.Mol object at 0x7f5838f4c6d0>]","[<rdkit.Chem.rdchem.Mol object at 0x7f5838f4ee30>, <rdkit.Chem.rdchem.Mol object at 0x7f5838f4f290>, <rdkit.Chem.rdchem.Mol object at 0x7f5838f4f0d0>, <rdkit.Chem.rdchem.Mol object at 0x7f5838f4edc0>, <rdkit.Chem.rdchem.Mol object at 0x7f5838f4c660>, <rdkit.Chem.rdchem.Mol object at 0x7f5838f4d380>, <rdkit.Chem.rdchem.Mol object at 0x7f5838f4c3c0>, <rdkit.Chem.rdchem.Mol object at 0x7f5838f4e1f0>, <rdkit.Chem.rdchem.Mol object at 0x7f5838f4d770>]","[<rdkit.Chem.rdchem.Mol object at 0x7f5838f4d930>, <rdkit.Chem.rdchem.Mol object at 0x7f5838f4e960>, <rdkit.Chem.rdchem.Mol object at 0x7f5838f4f140>, <rdkit.Chem.rdchem.Mol object at 0x7f5838f4c6d0>, '.', <rdkit.Chem.rdchem.Mol object at 0x7f5838f4ee30>, <rdkit.Chem.rdchem.Mol object at 0x7f5838f4f290>, <rdkit.Chem.rdchem.Mol object at 0x7f5838f4f0d0>, <rdkit.Chem.rdchem.Mol object at 0x7f5838f4edc0>, <rdkit.Chem.rdchem.Mol object at 0x7f5838f4c660>, <rdkit.Chem.rdchem.Mol object at 0x7f5838f4d380>, <rdkit.Chem.rdchem.Mol object at 0x7f5838f4c3c0>, <rdkit.Chem.rdchem.Mol object at 0x7f5838f4e1f0>, <rdkit.Chem.rdchem.Mol object at 0x7f5838f4d770>]","[0, 0, 0, 1341, 1342, 1343, 1344, 1, 1345, 1346, 1347, 1348, 1349, 1350, 1351, 1352, 1353]"
PTB7-Th,DTPC-IC,-5.204782608695651,-3.5391891891891896,-5.21,-3.97,0.667,DCB,_,25.0,PEDOT:PSS,C60-bissalt,3.12,3.12,0.863,42.4,"[<rdkit.Chem.rdchem.Mol object at 0x7f5838f4f370>, <rdkit.Chem.rdchem.Mol object at 0x7f5838f4e0a0>, <rdkit.Chem.rdchem.Mol object at 0x7f5838f4eb20>, <rdkit.Chem.rdchem.Mol object at 0x7f5838f4e9d0>, <rdkit.Chem.rdchem.Mol object at 0x7f5838f4f5a0>, <rdkit.Chem.rdchem.Mol object at 0x7f5838f4f8b0>, <rdkit.Chem.rdchem.Mol object at 0x7f5838f4f1b0>]","[<rdkit.Chem.rdchem.Mol object at 0x7f5838f4d460>, <rdkit.Chem.rdchem.Mol object at 0x7f5838f4c120>, <rdkit.Chem.rdchem.Mol object at 0x7f5838f4f300>, <rdkit.Chem.rdchem.Mol object at 0x7f5838f4f610>, <rdkit.Chem.rdchem.Mol object at 0x7f5838f4e810>, <rdkit.Chem.rdchem.Mol object at 0x7f5838d60510>]","[<rdkit.Chem.rdchem.Mol object at 0x7f5838f4f370>, <rdkit.Chem.rdchem.Mol object at 0x7f5838f4e0a0>, <rdkit.Chem.rdchem.Mol object at 0x7f5838f4eb20>, <rdkit.Chem.rdchem.Mol object at 0x7f5838f4e9d0>, <rdkit.Chem.rdchem.Mol object at 0x7f5838f4f5a0>, <rdkit.Chem.rdchem.Mol object at 0x7f5838f4f8b0>, <rdkit.Chem.rdchem.Mol object at 0x7f5838f4f1b0>, '.', <rdkit.Chem.rdchem.Mol object at 0x7f5838f4d460>, <rdkit.Chem.rdchem.Mol object at 0x7f5838f4c120>, <rdkit.Chem.rdchem.Mol object at 0x7f5838f4f300>, <rdkit.Chem.rdchem.Mol object at 0x7f5838f4f610>, <rdkit.Chem.rdchem.Mol object at 0x7f5838f4e810>, <rdkit.Chem.rdchem.Mol object at 0x7f5838d60510>]","[0, 0, 0, 1363, 1364, 1365, 1366, 1367, 1368, 1369, 1, 1370, 1371, 1372, 1373, 1374, 1375]"
PBDB-T,FDICTF,-5.297714285714285,-3.4170000000000003,-5.43,-3.71,0.833,CB,DIO,25.0,PEDOT:PSS,PDIN,10.06,9.81,0.94,66.0,"[<rdkit.Chem.rdchem.Mol object at 0x7f5838f4f990>, <rdkit.Chem.rdchem.Mol object at 0x7f5838d61000>, <rdkit.Chem.rdchem.Mol object at 0x7f5838d602e0>, <rdkit.Chem.rdchem.Mol object at 0x7f5838d609e0>, <rdkit.Chem.rdchem.Mol object at 0x7f5838d61310>]","[<rdkit.Chem.rdchem.Mol object at 0x7f5838f4dd90>, <rdkit.Chem.rdchem.Mol object at 0x7f5838d61620>, <rdkit.Chem.rdchem.Mol object at 0x7f5838f4de70>, <rdkit.Chem.rdchem.Mol object at 0x7f5838f4f220>]","[<rdkit.Chem.rdchem.Mol object at 0x7f5838f4f990>, <rdkit.Chem.rdchem.Mol object at 0x7f5838d61000>, <rdkit.Chem.rdchem.Mol object at 0x7f5838d602e0>, <rdkit.Chem.rdchem.Mol object at 0x7f5838d609e0>, <rdkit.Chem.rdchem.Mol object at 0x7f5838d61310>, '.', <rdkit.Chem.rdchem.Mol object at 0x7f5838f4dd90>, <rdkit.Chem.rdchem.Mol object at 0x7f5838d61620>, <rdkit.Chem.rdchem.Mol object at 0x7f5838f4de70>, <rdkit.Chem.rdchem.Mol object at 0x7f5838f4f220>]","[0, 0, 0, 0, 0, 0, 0, 1399, 1400, 1401, 1402, 1403, 1, 1404, 1405, 1406, 1407]"
P3HT,MPU1,-5.057777777777777,-2.989444444444445,-5.81,-3.99,1.0,CF,DIO,40.0,PEDOT:PSS,PFN,1.14,1.13,0.64,42.0,"[<rdkit.Chem.rdchem.Mol object at 0x7f5838f4d690>, <rdkit.Chem.rdchem.Mol object at 0x7f5838f4f7d0>, <rdkit.Chem.rdchem.Mol object at 0x7f5838d60740>, <rdkit.Chem.rdchem.Mol object at 0x7f5838d60580>]","[<rdkit.Chem.rdchem.Mol object at 0x7f5838f4f760>, <rdkit.Chem.rdchem.Mol object at 0x7f5838f4fd80>, <rdkit.Chem.rdchem.Mol object at 0x7f5838f4c0b0>, <rdkit.Chem.rdchem.Mol object at 0x7f5838d610e0>, <rdkit.Chem.rdchem.Mol object at 0x7f5838d611c0>, <rdkit.Chem.rdchem.Mol object at 0x7f5838d61540>]","[<rdkit.Chem.rdchem.Mol object at 0x7f5838f4d690>, <rdkit.Chem.rdchem.Mol object at 0x7f5838f4f7d0>, <rdkit.Chem.rdchem.Mol object at 0x7f5838d60740>, <rdkit.Chem.rdchem.Mol object at 0x7f5838d60580>, '.', <rdkit.Chem.rdchem.Mol object at 0x7f5838f4f760>, <rdkit.Chem.rdchem.Mol object at 0x7f5838f4fd80>, <rdkit.Chem.rdchem.Mol object at 0x7f5838f4c0b0>, <rdkit.Chem.rdchem.Mol object at 0x7f5838d610e0>, <rdkit.Chem.rdchem.Mol object at 0x7f5838d611c0>, <rdkit.Chem.rdchem.Mol object at 0x7f5838d61540>]","[0, 0, 0, 0, 0, 0, 1408, 1409, 1410, 1411, 1, 1412, 1413, 1414, 1415, 1416, 1417]"
P_dFBT-DTS,MPU1,-5.31,-3.33,-5.81,-3.99,1.0,CF,DIO,40.0,PEDOT:PSS,PFN,4.17,4.17,1.04,48.0,"[<rdkit.Chem.rdchem.Mol object at 0x7f5838f4fe60>, <rdkit.Chem.rdchem.Mol object at 0x7f5838d60200>, <rdkit.Chem.rdchem.Mol object at 0x7f5838d60d60>, <rdkit.Chem.rdchem.Mol object at 0x7f5838d61150>, <rdkit.Chem.rdchem.Mol object at 0x7f5838d60f90>]","[<rdkit.Chem.rdchem.Mol object at 0x7f5838d60120>, <rdkit.Chem.rdchem.Mol object at 0x7f5838d60b30>, <rdkit.Chem.rdchem.Mol object at 0x7f5838d60e40>, <rdkit.Chem.rdchem.Mol object at 0x7f5838d605f0>, <rdkit.Chem.rdchem.Mol object at 0x7f5838d60040>, <rdkit.Chem.rdchem.Mol object at 0x7f5838d60f20>]","[<rdkit.Chem.rdchem.Mol object at 0x7f5838f4fe60>, <rdkit.Chem.rdchem.Mol object at 0x7f5838d60200>, <rdkit.Chem.rdchem.Mol object at 0x7f5838d60d60>, <rdkit.Chem.rdchem.Mol object at 0x7f5838d61150>, <rdkit.Chem.rdchem.Mol object at 0x7f5838d60f90>, '.', <rdkit.Chem.rdchem.Mol object at 0x7f5838d60120>, <rdkit.Chem.rdchem.Mol object at 0x7f5838d60b30>, <rdkit.Chem.rdchem.Mol object at 0x7f5838d60e40>, <rdkit.Chem.rdchem.Mol object at 0x7f5838d605f0>, <rdkit.Chem.rdchem.Mol object at 0x7f5838d60040>, <rdkit.Chem.rdchem.Mol object at 0x7f5838d60f20>]","[0, 0, 0, 0, 0, 1418, 1419, 1420, 1421, 1422, 1, 1423, 1424, 1425, 1426, 1427, 1428]"
PBDB-T,IDT-BC6,-5.297714285714285,-3.4170000000000003,-5.55,-3.83,1.0,o-DCB,_,25.0,MoOx,ZnO,2.3,2.28,0.92,44.0,"[<rdkit.Chem.rdchem.Mol object at 0x7f5838f4fae0>, <rdkit.Chem.rdchem.Mol object at 0x7f5838d615b0>, <rdkit.Chem.rdchem.Mol object at 0x7f5838d60660>, <rdkit.Chem.rdchem.Mol object at 0x7f5838d60900>, <rdkit.Chem.rdchem.Mol object at 0x7f5838d62180>]","[<rdkit.Chem.rdchem.Mol object at 0x7f5838d62490>, <rdkit.Chem.rdchem.Mol object at 0x7f5838d617e0>, <rdkit.Chem.rdchem.Mol object at 0x7f5838d618c0>, <rdkit.Chem.rdchem.Mol object at 0x7f5838d61b60>, <rdkit.Chem.rdchem.Mol object at 0x7f5838d79770>, <rdkit.Chem.rdchem.Mol object at 0x7f5838d795b0>]","[<rdkit.Chem.rdchem.Mol object at 0x7f5838f4fae0>, <rdkit.Chem.rdchem.Mol object at 0x7f5838d615b0>, <rdkit.Chem.rdchem.Mol object at 0x7f5838d60660>, <rdkit.Chem.rdchem.Mol object at 0x7f5838d60900>, <rdkit.Chem.rdchem.Mol object at 0x7f5838d62180>, '.', <rdkit.Chem.rdchem.Mol object at 0x7f5838d62490>, <rdkit.Chem.rdchem.Mol object at 0x7f5838d617e0>, <rdkit.Chem.rdchem.Mol object at 0x7f5838d618c0>, <rdkit.Chem.rdchem.Mol object at 0x7f5838d61b60>, <rdkit.Chem.rdchem.Mol object at 0x7f5838d79770>, <rdkit.Chem.rdchem.Mol object at 0x7f5838d795b0>]","[0, 0, 0, 0, 0, 1429, 1430, 1431, 1432, 1433, 1, 1434, 1435, 1436, 1437, 1438, 1439]"
PBDB-T,IDT-BOC6,-5.297714285714285,-3.4170000000000003,-5.51,-3.78,1.0,o-DCB,DIO,25.0,MoOx,ZnO,9.6,9.56,1.01,54.0,"[<rdkit.Chem.rdchem.Mol object at 0x7f5838f4d620>, <rdkit.Chem.rdchem.Mol object at 0x7f5838d63a70>, <rdkit.Chem.rdchem.Mol object at 0x7f5838d633e0>, <rdkit.Chem.rdchem.Mol object at 0x7f5838d636f0>, <rdkit.Chem.rdchem.Mol object at 0x7f5838d62b90>]","[<rdkit.Chem.rdchem.Mol object at 0x7f5838d630d0>, <rdkit.Chem.rdchem.Mol object at 0x7f5838d63300>, <rdkit.Chem.rdchem.Mol object at 0x7f5838d63060>, <rdkit.Chem.rdchem.Mol object at 0x7f5838d63d10>, <rdkit.Chem.rdchem.Mol object at 0x7f5838d62730>, <rdkit.Chem.rdchem.Mol object at 0x7f5838d62570>, <rdkit.Chem.rdchem.Mol object at 0x7f5838d61460>, <rdkit.Chem.rdchem.Mol object at 0x7f5838d61070>]","[<rdkit.Chem.rdchem.Mol object at 0x7f5838f4d620>, <rdkit.Chem.rdchem.Mol object at 0x7f5838d63a70>, <rdkit.Chem.rdchem.Mol object at 0x7f5838d633e0>, <rdkit.Chem.rdchem.Mol object at 0x7f5838d636f0>, <rdkit.Chem.rdchem.Mol object at 0x7f5838d62b90>, '.', <rdkit.Chem.rdchem.Mol object at 0x7f5838d630d0>, <rdkit.Chem.rdchem.Mol object at 0x7f5838d63300>, <rdkit.Chem.rdchem.Mol object at 0x7f5838d63060>, <rdkit.Chem.rdchem.Mol object at 0x7f5838d63d10>, <rdkit.Chem.rdchem.Mol object at 0x7f5838d62730>, <rdkit.Chem.rdchem.Mol object at 0x7f5838d62570>, <rdkit.Chem.rdchem.Mol object at 0x7f5838d61460>, <rdkit.Chem.rdchem.Mol object at 0x7f5838d61070>]","[0, 0, 0, 1440, 1441, 1442, 1443, 1444, 1, 1445, 1446, 1447, 1448, 1449, 1450, 1451, 1452]"