Donor,Acceptor,HOMO_D_eV,LUMO_D_eV,HOMO_A_eV,LUMO_A_eV,D_A_ratio_m_m,solvent,solvent_additive,annealing_temperature,hole_contact_layer,electron_contact_layer,PCE_percent,calc_PCE_percent,Voc_V,FF_percent,Donor_BRICS,Acceptor_BRICS,DA_pair_BRICS,DA_tokenized_BRICS
PBDB-T,ICBF-O,-5.297714285714285,-3.4170000000000003,-5.7,-3.75,1.0,CB,_,25.0,PEDOT:PSS,PDINO,3.11,3.08,1.06,42.6,"[<rdkit.Chem.rdchem.Mol object at 0x7f5838c8b290>, <rdkit.Chem.rdchem.Mol object at 0x7f5838c8bd10>, <rdkit.Chem.rdchem.Mol object at 0x7f5838c8b140>, <rdkit.Chem.rdchem.Mol object at 0x7f5838c8b300>, <rdkit.Chem.rdchem.Mol object at 0x7f5838c946d0>]","[<rdkit.Chem.rdchem.Mol object at 0x7f5838c8b920>, <rdkit.Chem.rdchem.Mol object at 0x7f5838c8b450>, <rdkit.Chem.rdchem.Mol object at 0x7f5838c89d20>, <rdkit.Chem.rdchem.Mol object at 0x7f5838c8a9d0>, <rdkit.Chem.rdchem.Mol object at 0x7f5838c8b680>, <rdkit.Chem.rdchem.Mol object at 0x7f5838c88c80>]","[<rdkit.Chem.rdchem.Mol object at 0x7f5838c8b290>, <rdkit.Chem.rdchem.Mol object at 0x7f5838c8bd10>, <rdkit.Chem.rdchem.Mol object at 0x7f5838c8b140>, <rdkit.Chem.rdchem.Mol object at 0x7f5838c8b300>, <rdkit.Chem.rdchem.Mol object at 0x7f5838c946d0>, '.', <rdkit.Chem.rdchem.Mol object at 0x7f5838c8b920>, <rdkit.Chem.rdchem.Mol object at 0x7f5838c8b450>, <rdkit.Chem.rdchem.Mol object at 0x7f5838c89d20>, <rdkit.Chem.rdchem.Mol object at 0x7f5838c8a9d0>, <rdkit.Chem.rdchem.Mol object at 0x7f5838c8b680>, <rdkit.Chem.rdchem.Mol object at 0x7f5838c88c80>]","[0, 0, 0, 0, 0, 4840, 4841, 4842, 4843, 4844, 1, 4845, 4846, 4847, 4848, 4849, 4850]"
PBDB-T,FICBF,-5.297714285714285,-3.4170000000000003,-5.66,-3.88,1.0,CB,_,80.0,PEDOT:PSS,PDINO,7.41,7.41,0.87,67.0,"[<rdkit.Chem.rdchem.Mol object at 0x7f5838c8ba00>, <rdkit.Chem.rdchem.Mol object at 0x7f5838c94ac0>, <rdkit.Chem.rdchem.Mol object at 0x7f5838c94580>, <rdkit.Chem.rdchem.Mol object at 0x7f5838c94dd0>, <rdkit.Chem.rdchem.Mol object at 0x7f5838c95c40>]","[<rdkit.Chem.rdchem.Mol object at 0x7f5838c8b220>, <rdkit.Chem.rdchem.Mol object at 0x7f5838c94f90>, <rdkit.Chem.rdchem.Mol object at 0x7f5838c8bbc0>, <rdkit.Chem.rdchem.Mol object at 0x7f5838c944a0>, <rdkit.Chem.rdchem.Mol object at 0x7f5838c95f50>]","[<rdkit.Chem.rdchem.Mol object at 0x7f5838c8ba00>, <rdkit.Chem.rdchem.Mol object at 0x7f5838c94ac0>, <rdkit.Chem.rdchem.Mol object at 0x7f5838c94580>, <rdkit.Chem.rdchem.Mol object at 0x7f5838c94dd0>, <rdkit.Chem.rdchem.Mol object at 0x7f5838c95c40>, '.', <rdkit.Chem.rdchem.Mol object at 0x7f5838c8b220>, <rdkit.Chem.rdchem.Mol object at 0x7f5838c94f90>, <rdkit.Chem.rdchem.Mol object at 0x7f5838c8bbc0>, <rdkit.Chem.rdchem.Mol object at 0x7f5838c944a0>, <rdkit.Chem.rdchem.Mol object at 0x7f5838c95f50>]","[0, 0, 0, 0, 0, 0, 4872, 4873, 4874, 4875, 4876, 1, 4877, 4878, 4879, 4880, 4881]"
PBT1-EH,IDTCN,-5.43,-3.43,-5.890000000000001,-3.93,1.0,CF,_,100.0,PEDOT:PSS,ZrAcAc,8.69,8.54,0.93,70.2,"[<rdkit.Chem.rdchem.Mol object at 0x7f5838c96b20>, <rdkit.Chem.rdchem.Mol object at 0x7f5838c96810>, <rdkit.Chem.rdchem.Mol object at 0x7f5838c969d0>, <rdkit.Chem.rdchem.Mol object at 0x7f5838c953f0>, <rdkit.Chem.rdchem.Mol object at 0x7f5838c95850>, <rdkit.Chem.rdchem.Mol object at 0x7f5838c94660>, <rdkit.Chem.rdchem.Mol object at 0x7f5838c97bc0>]","[<rdkit.Chem.rdchem.Mol object at 0x7f5838c97ca0>, <rdkit.Chem.rdchem.Mol object at 0x7f5838c945f0>, <rdkit.Chem.rdchem.Mol object at 0x7f5838c96570>, <rdkit.Chem.rdchem.Mol object at 0x7f5838c95fc0>, <rdkit.Chem.rdchem.Mol object at 0x7f5838c95a80>]","[<rdkit.Chem.rdchem.Mol object at 0x7f5838c96b20>, <rdkit.Chem.rdchem.Mol object at 0x7f5838c96810>, <rdkit.Chem.rdchem.Mol object at 0x7f5838c969d0>, <rdkit.Chem.rdchem.Mol object at 0x7f5838c953f0>, <rdkit.Chem.rdchem.Mol object at 0x7f5838c95850>, <rdkit.Chem.rdchem.Mol object at 0x7f5838c94660>, <rdkit.Chem.rdchem.Mol object at 0x7f5838c97bc0>, '.', <rdkit.Chem.rdchem.Mol object at 0x7f5838c97ca0>, <rdkit.Chem.rdchem.Mol object at 0x7f5838c945f0>, <rdkit.Chem.rdchem.Mol object at 0x7f5838c96570>, <rdkit.Chem.rdchem.Mol object at 0x7f5838c95fc0>, <rdkit.Chem.rdchem.Mol object at 0x7f5838c95a80>]","[0, 0, 0, 0, 4923, 4924, 4925, 4926, 4927, 4928, 4929, 1, 4930, 4931, 4932, 4933, 4934]"
PBDB-T,IDT-T,-5.297714285714285,-3.4170000000000003,-5.49,-3.985,1.0,CB,_,25.0,MoOx,ZnO,6.36,6.36,0.952,59.62,"[<rdkit.Chem.rdchem.Mol object at 0x7f5838c97450>, <rdkit.Chem.rdchem.Mol object at 0x7f5838c94c80>, <rdkit.Chem.rdchem.Mol object at 0x7f5838c962d0>, <rdkit.Chem.rdchem.Mol object at 0x7f5838c97840>, <rdkit.Chem.rdchem.Mol object at 0x7f5838c968f0>]","[<rdkit.Chem.rdchem.Mol object at 0x7f5838c95d90>, <rdkit.Chem.rdchem.Mol object at 0x7f5838c96ea0>, <rdkit.Chem.rdchem.Mol object at 0x7f5838c952a0>, <rdkit.Chem.rdchem.Mol object at 0x7f5838c97060>, <rdkit.Chem.rdchem.Mol object at 0x7f5838c94900>, <rdkit.Chem.rdchem.Mol object at 0x7f5838c94200>]","[<rdkit.Chem.rdchem.Mol object at 0x7f5838c97450>, <rdkit.Chem.rdchem.Mol object at 0x7f5838c94c80>, <rdkit.Chem.rdchem.Mol object at 0x7f5838c962d0>, <rdkit.Chem.rdchem.Mol object at 0x7f5838c97840>, <rdkit.Chem.rdchem.Mol object at 0x7f5838c968f0>, '.', <rdkit.Chem.rdchem.Mol object at 0x7f5838c95d90>, <rdkit.Chem.rdchem.Mol object at 0x7f5838c96ea0>, <rdkit.Chem.rdchem.Mol object at 0x7f5838c952a0>, <rdkit.Chem.rdchem.Mol object at 0x7f5838c97060>, <rdkit.Chem.rdchem.Mol object at 0x7f5838c94900>, <rdkit.Chem.rdchem.Mol object at 0x7f5838c94200>]","[0, 0, 0, 0, 0, 4935, 4936, 4937, 4938, 4939, 1, 4940, 4941, 4942, 4943, 4944, 4945]"
PBDB-T,IDT-3MT,-5.297714285714285,-3.4170000000000003,-5.68,-4.16,1.0,CB,_,25.0,MoOx,ZnO,8.4,8.41,0.95,61.32,"[<rdkit.Chem.rdchem.Mol object at 0x7f5838c94510>, <rdkit.Chem.rdchem.Mol object at 0x7f5838c943c0>, <rdkit.Chem.rdchem.Mol object at 0x7f5838c95150>, <rdkit.Chem.rdchem.Mol object at 0x7f5838c97530>, <rdkit.Chem.rdchem.Mol object at 0x7f5838c96ab0>]","[<rdkit.Chem.rdchem.Mol object at 0x7f5838c96f10>, <rdkit.Chem.rdchem.Mol object at 0x7f5838c97990>, <rdkit.Chem.rdchem.Mol object at 0x7f5838c967a0>, <rdkit.Chem.rdchem.Mol object at 0x7f5838c97610>, <rdkit.Chem.rdchem.Mol object at 0x7f5838c97b50>, <rdkit.Chem.rdchem.Mol object at 0x7f5838c975a0>, <rdkit.Chem.rdchem.Mol object at 0x7f5838c97290>, <rdkit.Chem.rdchem.Mol object at 0x7f5838c97df0>]","[<rdkit.Chem.rdchem.Mol object at 0x7f5838c94510>, <rdkit.Chem.rdchem.Mol object at 0x7f5838c943c0>, <rdkit.Chem.rdchem.Mol object at 0x7f5838c95150>, <rdkit.Chem.rdchem.Mol object at 0x7f5838c97530>, <rdkit.Chem.rdchem.Mol object at 0x7f5838c96ab0>, '.', <rdkit.Chem.rdchem.Mol object at 0x7f5838c96f10>, <rdkit.Chem.rdchem.Mol object at 0x7f5838c97990>, <rdkit.Chem.rdchem.Mol object at 0x7f5838c967a0>, <rdkit.Chem.rdchem.Mol object at 0x7f5838c97610>, <rdkit.Chem.rdchem.Mol object at 0x7f5838c97b50>, <rdkit.Chem.rdchem.Mol object at 0x7f5838c975a0>, <rdkit.Chem.rdchem.Mol object at 0x7f5838c97290>, <rdkit.Chem.rdchem.Mol object at 0x7f5838c97df0>]","[0, 0, 0, 4946, 4947, 4948, 4949, 4950, 1, 4951, 4952, 4953, 4954, 4955, 4956, 4957, 4958]"
PBDB-T,IDIC,-5.297714285714285,-3.4170000000000003,-5.706,-4.002666666666667,1.0,CB,_,110.0,MoOx,PFN-Br,8.83,8.84,0.81,65.36,"[<rdkit.Chem.rdchem.Mol object at 0x7f5838c96880>, <rdkit.Chem.rdchem.Mol object at 0x7f5838c973e0>, <rdkit.Chem.rdchem.Mol object at 0x7f5838c97140>, <rdkit.Chem.rdchem.Mol object at 0x7f5838c94a50>, <rdkit.Chem.rdchem.Mol object at 0x7f5838ca0430>]","[<rdkit.Chem.rdchem.Mol object at 0x7f5838c94270>, <rdkit.Chem.rdchem.Mol object at 0x7f5838c97370>, <rdkit.Chem.rdchem.Mol object at 0x7f5838c97ed0>, <rdkit.Chem.rdchem.Mol object at 0x7f5838c97e60>]","[<rdkit.Chem.rdchem.Mol object at 0x7f5838c96880>, <rdkit.Chem.rdchem.Mol object at 0x7f5838c973e0>, <rdkit.Chem.rdchem.Mol object at 0x7f5838c97140>, <rdkit.Chem.rdchem.Mol object at 0x7f5838c94a50>, <rdkit.Chem.rdchem.Mol object at 0x7f5838ca0430>, '.', <rdkit.Chem.rdchem.Mol object at 0x7f5838c94270>, <rdkit.Chem.rdchem.Mol object at 0x7f5838c97370>, <rdkit.Chem.rdchem.Mol object at 0x7f5838c97ed0>, <rdkit.Chem.rdchem.Mol object at 0x7f5838c97e60>]","[0, 0, 0, 0, 0, 0, 0, 4969, 4970, 4971, 4972, 4973, 1, 4974, 4975, 4976, 4977]"
PBDB-T,IDTBOR,-5.297714285714285,-3.4170000000000003,-5.49,-3.93,0.5,CB,_,130.0,MoOx,ZnO/PFN-Br,7.74,7.78,0.89,54.67,"[<rdkit.Chem.rdchem.Mol object at 0x7f5838c96f80>, <rdkit.Chem.rdchem.Mol object at 0x7f5838c96c00>, <rdkit.Chem.rdchem.Mol object at 0x7f5838c965e0>, <rdkit.Chem.rdchem.Mol object at 0x7f5838ca0ba0>, <rdkit.Chem.rdchem.Mol object at 0x7f5838ca0c10>]","[<rdkit.Chem.rdchem.Mol object at 0x7f5838c95e00>, <rdkit.Chem.rdchem.Mol object at 0x7f5838c96b90>, <rdkit.Chem.rdchem.Mol object at 0x7f5838c96180>, <rdkit.Chem.rdchem.Mol object at 0x7f5838c96730>, <rdkit.Chem.rdchem.Mol object at 0x7f5838c966c0>]","[<rdkit.Chem.rdchem.Mol object at 0x7f5838c96f80>, <rdkit.Chem.rdchem.Mol object at 0x7f5838c96c00>, <rdkit.Chem.rdchem.Mol object at 0x7f5838c965e0>, <rdkit.Chem.rdchem.Mol object at 0x7f5838ca0ba0>, <rdkit.Chem.rdchem.Mol object at 0x7f5838ca0c10>, '.', <rdkit.Chem.rdchem.Mol object at 0x7f5838c95e00>, <rdkit.Chem.rdchem.Mol object at 0x7f5838c96b90>, <rdkit.Chem.rdchem.Mol object at 0x7f5838c96180>, <rdkit.Chem.rdchem.Mol object at 0x7f5838c96730>, <rdkit.Chem.rdchem.Mol object at 0x7f5838c966c0>]","[0, 0, 0, 0, 0, 0, 4978, 4979, 4980, 4981, 4982, 1, 4983, 4984, 4985, 4986, 4987]"
PBDB-T,IDTBSR,-5.297714285714285,-3.4170000000000003,-5.41,-3.88,0.5,CB,_,130.0,MoOx,ZnO/PFN-Br,6.95,6.94,0.95,52.38,"[<rdkit.Chem.rdchem.Mol object at 0x7f5838c950e0>, <rdkit.Chem.rdchem.Mol object at 0x7f5838ca0f20>, <rdkit.Chem.rdchem.Mol object at 0x7f5838ca0270>, <rdkit.Chem.rdchem.Mol object at 0x7f5838ca0b30>, <rdkit.Chem.rdchem.Mol object at 0x7f5838ca12a0>]","[<rdkit.Chem.rdchem.Mol object at 0x7f5838c96490>, <rdkit.Chem.rdchem.Mol object at 0x7f5838c96500>, <rdkit.Chem.rdchem.Mol object at 0x7f5838c96420>, <rdkit.Chem.rdchem.Mol object at 0x7f5838c976f0>, <rdkit.Chem.rdchem.Mol object at 0x7f5838c95e70>]","[<rdkit.Chem.rdchem.Mol object at 0x7f5838c950e0>, <rdkit.Chem.rdchem.Mol object at 0x7f5838ca0f20>, <rdkit.Chem.rdchem.Mol object at 0x7f5838ca0270>, <rdkit.Chem.rdchem.Mol object at 0x7f5838ca0b30>, <rdkit.Chem.rdchem.Mol object at 0x7f5838ca12a0>, '.', <rdkit.Chem.rdchem.Mol object at 0x7f5838c96490>, <rdkit.Chem.rdchem.Mol object at 0x7f5838c96500>, <rdkit.Chem.rdchem.Mol object at 0x7f5838c96420>, <rdkit.Chem.rdchem.Mol object at 0x7f5838c976f0>, <rdkit.Chem.rdchem.Mol object at 0x7f5838c95e70>]","[0, 0, 0, 0, 0, 0, 4988, 4989, 4990, 4991, 4992, 1, 4993, 4994, 4995, 4996, 4997]"
PBDB-T,TTIC,-5.297714285714285,-3.4170000000000003,-5.54,-4.109999999999999,0.667,DCB,DIO,125.0,MoOx,ZnO,10.61,10.63,0.77,62.0,"[<rdkit.Chem.rdchem.Mol object at 0x7f5838c96340>, <rdkit.Chem.rdchem.Mol object at 0x7f5838ca11c0>, <rdkit.Chem.rdchem.Mol object at 0x7f5838ca1000>, <rdkit.Chem.rdchem.Mol object at 0x7f5838ca0900>, <rdkit.Chem.rdchem.Mol object at 0x7f5838ca1770>]","[<rdkit.Chem.rdchem.Mol object at 0x7f5838c96ce0>, <rdkit.Chem.rdchem.Mol object at 0x7f5838ca1620>, <rdkit.Chem.rdchem.Mol object at 0x7f5838c974c0>, <rdkit.Chem.rdchem.Mol object at 0x7f5838ca1a80>, <rdkit.Chem.rdchem.Mol object at 0x7f5838ca0660>]","[<rdkit.Chem.rdchem.Mol object at 0x7f5838c96340>, <rdkit.Chem.rdchem.Mol object at 0x7f5838ca11c0>, <rdkit.Chem.rdchem.Mol object at 0x7f5838ca1000>, <rdkit.Chem.rdchem.Mol object at 0x7f5838ca0900>, <rdkit.Chem.rdchem.Mol object at 0x7f5838ca1770>, '.', <rdkit.Chem.rdchem.Mol object at 0x7f5838c96ce0>, <rdkit.Chem.rdchem.Mol object at 0x7f5838ca1620>, <rdkit.Chem.rdchem.Mol object at 0x7f5838c974c0>, <rdkit.Chem.rdchem.Mol object at 0x7f5838ca1a80>, <rdkit.Chem.rdchem.Mol object at 0x7f5838ca0660>]","[0, 0, 0, 0, 0, 0, 4998, 4999, 5000, 5001, 5002, 1, 5003, 5004, 5005, 5006, 5007]"
J52,ITIC,-5.218571428571429,-3.341428571428572,-5.574146341463415,-3.915,0.667,CF,_,25.0,PEDOT:PSS,PDINO,3.78,3.77,0.803,43.2,"[<rdkit.Chem.rdchem.Mol object at 0x7f5838c960a0>, <rdkit.Chem.rdchem.Mol object at 0x7f5838c97a70>, <rdkit.Chem.rdchem.Mol object at 0x7f5838ca1f50>, <rdkit.Chem.rdchem.Mol object at 0x7f5838ca1d90>, <rdkit.Chem.rdchem.Mol object at 0x7f5838ca1e70>, <rdkit.Chem.rdchem.Mol object at 0x7f5838ca0d60>]","[<rdkit.Chem.rdchem.Mol object at 0x7f5838ca1690>, <rdkit.Chem.rdchem.Mol object at 0x7f5838ca05f0>, <rdkit.Chem.rdchem.Mol object at 0x7f5838ca1230>, <rdkit.Chem.rdchem.Mol object at 0x7f5838ca00b0>, <rdkit.Chem.rdchem.Mol object at 0x7f5838ca04a0>]","[<rdkit.Chem.rdchem.Mol object at 0x7f5838c960a0>, <rdkit.Chem.rdchem.Mol object at 0x7f5838c97a70>, <rdkit.Chem.rdchem.Mol object at 0x7f5838ca1f50>, <rdkit.Chem.rdchem.Mol object at 0x7f5838ca1d90>, <rdkit.Chem.rdchem.Mol object at 0x7f5838ca1e70>, <rdkit.Chem.rdchem.Mol object at 0x7f5838ca0d60>, '.', <rdkit.Chem.rdchem.Mol object at 0x7f5838ca1690>, <rdkit.Chem.rdchem.Mol object at 0x7f5838ca05f0>, <rdkit.Chem.rdchem.Mol object at 0x7f5838ca1230>, <rdkit.Chem.rdchem.Mol object at 0x7f5838ca00b0>, <rdkit.Chem.rdchem.Mol object at 0x7f5838ca04a0>]","[0, 0, 0, 0, 0, 5018, 5019, 5020, 5021, 5022, 5023, 1, 5024, 5025, 5026, 5027, 5028]"
J52-Cl,ITIC,-5.53,-5.38,-5.574146341463415,-3.915,0.667,CF,_,25.0,PEDOT:PSS,PDINO,11.53,11.52,0.956,70.2,"[<rdkit.Chem.rdchem.Mol object at 0x7f5838c97760>, <rdkit.Chem.rdchem.Mol object at 0x7f5838ca0a50>, <rdkit.Chem.rdchem.Mol object at 0x7f5838ca1a10>, <rdkit.Chem.rdchem.Mol object at 0x7f5838ca1bd0>, <rdkit.Chem.rdchem.Mol object at 0x7f5838ca13f0>, <rdkit.Chem.rdchem.Mol object at 0x7f5838ca0580>, <rdkit.Chem.rdchem.Mol object at 0x7f5838ca1380>]","[<rdkit.Chem.rdchem.Mol object at 0x7f5838ca20a0>, <rdkit.Chem.rdchem.Mol object at 0x7f5838ca0740>, <rdkit.Chem.rdchem.Mol object at 0x7f5838ca0dd0>, <rdkit.Chem.rdchem.Mol object at 0x7f5838ca0890>, <rdkit.Chem.rdchem.Mol object at 0x7f5838ca1540>]","[<rdkit.Chem.rdchem.Mol object at 0x7f5838c97760>, <rdkit.Chem.rdchem.Mol object at 0x7f5838ca0a50>, <rdkit.Chem.rdchem.Mol object at 0x7f5838ca1a10>, <rdkit.Chem.rdchem.Mol object at 0x7f5838ca1bd0>, <rdkit.Chem.rdchem.Mol object at 0x7f5838ca13f0>, <rdkit.Chem.rdchem.Mol object at 0x7f5838ca0580>, <rdkit.Chem.rdchem.Mol object at 0x7f5838ca1380>, '.', <rdkit.Chem.rdchem.Mol object at 0x7f5838ca20a0>, <rdkit.Chem.rdchem.Mol object at 0x7f5838ca0740>, <rdkit.Chem.rdchem.Mol object at 0x7f5838ca0dd0>, <rdkit.Chem.rdchem.Mol object at 0x7f5838ca0890>, <rdkit.Chem.rdchem.Mol object at 0x7f5838ca1540>]","[0, 0, 0, 0, 5029, 5030, 5031, 5032, 5033, 5034, 5035, 1, 5036, 5037, 5038, 5039, 5040]"
PBDB-T,IDTOT2F,-5.297714285714285,-3.4170000000000003,-5.54,-3.94,1.0,DCB,_,25.0,MoOx,ZnO,12.79,12.77,0.85,72.0,"[<rdkit.Chem.rdchem.Mol object at 0x7f5838ca21f0>, <rdkit.Chem.rdchem.Mol object at 0x7f5838ca14d0>, <rdkit.Chem.rdchem.Mol object at 0x7f5838ca0eb0>, <rdkit.Chem.rdchem.Mol object at 0x7f5838ca2420>, <rdkit.Chem.rdchem.Mol object at 0x7f5838ca3060>]","[<rdkit.Chem.rdchem.Mol object at 0x7f5838ca1e00>, <rdkit.Chem.rdchem.Mol object at 0x7f5838ca2f10>, <rdkit.Chem.rdchem.Mol object at 0x7f5838ca1af0>, <rdkit.Chem.rdchem.Mol object at 0x7f5838ca2ea0>, <rdkit.Chem.rdchem.Mol object at 0x7f5838ca25e0>, <rdkit.Chem.rdchem.Mol object at 0x7f5838ca1460>, <rdkit.Chem.rdchem.Mol object at 0x7f5838ca0cf0>, <rdkit.Chem.rdchem.Mol object at 0x7f5838ca0200>]","[<rdkit.Chem.rdchem.Mol object at 0x7f5838ca21f0>, <rdkit.Chem.rdchem.Mol object at 0x7f5838ca14d0>, <rdkit.Chem.rdchem.Mol object at 0x7f5838ca0eb0>, <rdkit.Chem.rdchem.Mol object at 0x7f5838ca2420>, <rdkit.Chem.rdchem.Mol object at 0x7f5838ca3060>, '.', <rdkit.Chem.rdchem.Mol object at 0x7f5838ca1e00>, <rdkit.Chem.rdchem.Mol object at 0x7f5838ca2f10>, <rdkit.Chem.rdchem.Mol object at 0x7f5838ca1af0>, <rdkit.Chem.rdchem.Mol object at 0x7f5838ca2ea0>, <rdkit.Chem.rdchem.Mol object at 0x7f5838ca25e0>, <rdkit.Chem.rdchem.Mol object at 0x7f5838ca1460>, <rdkit.Chem.rdchem.Mol object at 0x7f5838ca0cf0>, <rdkit.Chem.rdchem.Mol object at 0x7f5838ca0200>]","[0, 0, 0, 5052, 5053, 5054, 5055, 5056, 1, 5057, 5058, 5059, 5060, 5061, 5062, 5063, 5064]"
PBDB-T,IDTIC,-5.297714285714285,-3.4170000000000003,-5.885,-3.91,1.0,CB,DIO,25.0,MoOx,ZnO,6.05,6.03,0.89,61.9,"[<rdkit.Chem.rdchem.Mol object at 0x7f5838ca33e0>, <rdkit.Chem.rdchem.Mol object at 0x7f5838ca2500>, <rdkit.Chem.rdchem.Mol object at 0x7f5838ca2730>, <rdkit.Chem.rdchem.Mol object at 0x7f5838ca1cb0>, <rdkit.Chem.rdchem.Mol object at 0x7f5838ca3680>]","[<rdkit.Chem.rdchem.Mol object at 0x7f5838ca38b0>, <rdkit.Chem.rdchem.Mol object at 0x7f5838ca3290>, <rdkit.Chem.rdchem.Mol object at 0x7f5838ca2e30>, <rdkit.Chem.rdchem.Mol object at 0x7f5838ca2880>]","[<rdkit.Chem.rdchem.Mol object at 0x7f5838ca33e0>, <rdkit.Chem.rdchem.Mol object at 0x7f5838ca2500>, <rdkit.Chem.rdchem.Mol object at 0x7f5838ca2730>, <rdkit.Chem.rdchem.Mol object at 0x7f5838ca1cb0>, <rdkit.Chem.rdchem.Mol object at 0x7f5838ca3680>, '.', <rdkit.Chem.rdchem.Mol object at 0x7f5838ca38b0>, <rdkit.Chem.rdchem.Mol object at 0x7f5838ca3290>, <rdkit.Chem.rdchem.Mol object at 0x7f5838ca2e30>, <rdkit.Chem.rdchem.Mol object at 0x7f5838ca2880>]","[0, 0, 0, 0, 0, 0, 0, 5065, 5066, 5067, 5068, 5069, 1, 5070, 5071, 5072, 5073]"
PBDB-T,ITIC,-5.297714285714285,-3.4170000000000003,-5.574146341463415,-3.915,1.0,CB,_,25.0,PEDOT:PSS,N719:PrC60MAI,9.94,9.94,0.897,65.5,"[<rdkit.Chem.rdchem.Mol object at 0x7f5838ca31b0>, <rdkit.Chem.rdchem.Mol object at 0x7f5838ca2c00>, <rdkit.Chem.rdchem.Mol object at 0x7f5838ca2c70>, <rdkit.Chem.rdchem.Mol object at 0x7f5838ca0510>, <rdkit.Chem.rdchem.Mol object at 0x7f5838ca2ab0>]","[<rdkit.Chem.rdchem.Mol object at 0x7f5838ca3d10>, <rdkit.Chem.rdchem.Mol object at 0x7f5838ca2110>, <rdkit.Chem.rdchem.Mol object at 0x7f5838ca30d0>, <rdkit.Chem.rdchem.Mol object at 0x7f5838ca2570>, <rdkit.Chem.rdchem.Mol object at 0x7f5838ca2030>]","[<rdkit.Chem.rdchem.Mol object at 0x7f5838ca31b0>, <rdkit.Chem.rdchem.Mol object at 0x7f5838ca2c00>, <rdkit.Chem.rdchem.Mol object at 0x7f5838ca2c70>, <rdkit.Chem.rdchem.Mol object at 0x7f5838ca0510>, <rdkit.Chem.rdchem.Mol object at 0x7f5838ca2ab0>, '.', <rdkit.Chem.rdchem.Mol object at 0x7f5838ca3d10>, <rdkit.Chem.rdchem.Mol object at 0x7f5838ca2110>, <rdkit.Chem.rdchem.Mol object at 0x7f5838ca30d0>, <rdkit.Chem.rdchem.Mol object at 0x7f5838ca2570>, <rdkit.Chem.rdchem.Mol object at 0x7f5838ca2030>]","[0, 0, 0, 0, 0, 0, 5074, 5075, 5076, 5077, 5078, 1, 5079, 5080, 5081, 5082, 5083]"
PBDB-T,ITCT,-5.297714285714285,-3.4170000000000003,-5.596666666666667,-3.796666666666667,1.0,CB,_,25.0,PEDOT:PSS,N719:PrC60MAI,10.99,10.99,0.85,72.3,"[<rdkit.Chem.rdchem.Mol object at 0x7f5838ca17e0>, <rdkit.Chem.rdchem.Mol object at 0x7f5838ca3a00>, <rdkit.Chem.rdchem.Mol object at 0x7f5838ca3920>, <rdkit.Chem.rdchem.Mol object at 0x7f5838ca2a40>, <rdkit.Chem.rdchem.Mol object at 0x7f5838ca3bc0>]","[<rdkit.Chem.rdchem.Mol object at 0x7f5838ca3610>, <rdkit.Chem.rdchem.Mol object at 0x7f5838ca1310>, <rdkit.Chem.rdchem.Mol object at 0x7f5838ca2650>, <rdkit.Chem.rdchem.Mol object at 0x7f5838ca2960>, <rdkit.Chem.rdchem.Mol object at 0x7f5838ca3b50>]","[<rdkit.Chem.rdchem.Mol object at 0x7f5838ca17e0>, <rdkit.Chem.rdchem.Mol object at 0x7f5838ca3a00>, <rdkit.Chem.rdchem.Mol object at 0x7f5838ca3920>, <rdkit.Chem.rdchem.Mol object at 0x7f5838ca2a40>, <rdkit.Chem.rdchem.Mol object at 0x7f5838ca3bc0>, '.', <rdkit.Chem.rdchem.Mol object at 0x7f5838ca3610>, <rdkit.Chem.rdchem.Mol object at 0x7f5838ca1310>, <rdkit.Chem.rdchem.Mol object at 0x7f5838ca2650>, <rdkit.Chem.rdchem.Mol object at 0x7f5838ca2960>, <rdkit.Chem.rdchem.Mol object at 0x7f5838ca3b50>]","[0, 0, 0, 0, 0, 0, 5084, 5085, 5086, 5087, 5088, 1, 5089, 5090, 5091, 5092, 5093]"