Donor,Acceptor,HOMO_D_eV,LUMO_D_eV,HOMO_A_eV,LUMO_A_eV,D_A_ratio_m_m,solvent,solvent_additive,annealing_temperature,hole_contact_layer,electron_contact_layer,PCE_percent,calc_PCE_percent,Voc_V,FF_percent,Donor_BRICS,Acceptor_BRICS,DA_pair_BRICS,DA_tokenized_BRICS
PBDB-T,IT-M,-5.297714285714285,-3.4170000000000003,-5.513571428571429,-3.808,1.0,CB,DIO,100.0,MoOx,EDTA-ZnO,12.1,12.1,0.953,73.2,"[<rdkit.Chem.rdchem.Mol object at 0x7f5838de7450>, <rdkit.Chem.rdchem.Mol object at 0x7f5838df1070>, <rdkit.Chem.rdchem.Mol object at 0x7f5838df05f0>, <rdkit.Chem.rdchem.Mol object at 0x7f5838df0510>, <rdkit.Chem.rdchem.Mol object at 0x7f5838df1690>]","[<rdkit.Chem.rdchem.Mol object at 0x7f5838de5cb0>, <rdkit.Chem.rdchem.Mol object at 0x7f5838df0ba0>, <rdkit.Chem.rdchem.Mol object at 0x7f5838de7680>, <rdkit.Chem.rdchem.Mol object at 0x7f5838df17e0>, <rdkit.Chem.rdchem.Mol object at 0x7f5838df0430>]","[<rdkit.Chem.rdchem.Mol object at 0x7f5838de7450>, <rdkit.Chem.rdchem.Mol object at 0x7f5838df1070>, <rdkit.Chem.rdchem.Mol object at 0x7f5838df05f0>, <rdkit.Chem.rdchem.Mol object at 0x7f5838df0510>, <rdkit.Chem.rdchem.Mol object at 0x7f5838df1690>, '.', <rdkit.Chem.rdchem.Mol object at 0x7f5838de5cb0>, <rdkit.Chem.rdchem.Mol object at 0x7f5838df0ba0>, <rdkit.Chem.rdchem.Mol object at 0x7f5838de7680>, <rdkit.Chem.rdchem.Mol object at 0x7f5838df17e0>, <rdkit.Chem.rdchem.Mol object at 0x7f5838df0430>]","[0, 0, 0, 0, 0, 0, 3081, 3082, 3083, 3084, 3085, 1, 3086, 3087, 3088, 3089, 3090]"
PBDB-T,ITIC,-5.297714285714285,-3.4170000000000003,-5.574146341463415,-3.915,1.0,CB,DIO,160.0,MoOx,ZnO,10.02,10.02,0.86,64.29,"[<rdkit.Chem.rdchem.Mol object at 0x7f5838de7c30>, <rdkit.Chem.rdchem.Mol object at 0x7f5838df07b0>, <rdkit.Chem.rdchem.Mol object at 0x7f5838df12a0>, <rdkit.Chem.rdchem.Mol object at 0x7f5838df0a50>, <rdkit.Chem.rdchem.Mol object at 0x7f5838df1b60>]","[<rdkit.Chem.rdchem.Mol object at 0x7f5838de73e0>, <rdkit.Chem.rdchem.Mol object at 0x7f5838df1930>, <rdkit.Chem.rdchem.Mol object at 0x7f5838de6c00>, <rdkit.Chem.rdchem.Mol object at 0x7f5838df1380>, <rdkit.Chem.rdchem.Mol object at 0x7f5838df19a0>]","[<rdkit.Chem.rdchem.Mol object at 0x7f5838de7c30>, <rdkit.Chem.rdchem.Mol object at 0x7f5838df07b0>, <rdkit.Chem.rdchem.Mol object at 0x7f5838df12a0>, <rdkit.Chem.rdchem.Mol object at 0x7f5838df0a50>, <rdkit.Chem.rdchem.Mol object at 0x7f5838df1b60>, '.', <rdkit.Chem.rdchem.Mol object at 0x7f5838de73e0>, <rdkit.Chem.rdchem.Mol object at 0x7f5838df1930>, <rdkit.Chem.rdchem.Mol object at 0x7f5838de6c00>, <rdkit.Chem.rdchem.Mol object at 0x7f5838df1380>, <rdkit.Chem.rdchem.Mol object at 0x7f5838df19a0>]","[0, 0, 0, 0, 0, 0, 3091, 3092, 3093, 3094, 3095, 1, 3096, 3097, 3098, 3099, 3100]"
PBDB-T,ITIC,-5.297714285714285,-3.4170000000000003,-5.574146341463415,-3.915,1.0,CB,DIO,110.0,PEDOT:PSS,PFN-Br,10.54,10.49,0.896,70.73,"[<rdkit.Chem.rdchem.Mol object at 0x7f5838de4740>, <rdkit.Chem.rdchem.Mol object at 0x7f5838df1000>, <rdkit.Chem.rdchem.Mol object at 0x7f5838df02e0>, <rdkit.Chem.rdchem.Mol object at 0x7f5838df0d60>, <rdkit.Chem.rdchem.Mol object at 0x7f5838df2030>]","[<rdkit.Chem.rdchem.Mol object at 0x7f5838df20a0>, <rdkit.Chem.rdchem.Mol object at 0x7f5838df04a0>, <rdkit.Chem.rdchem.Mol object at 0x7f5838df1e00>, <rdkit.Chem.rdchem.Mol object at 0x7f5838df1f50>, <rdkit.Chem.rdchem.Mol object at 0x7f5838df09e0>]","[<rdkit.Chem.rdchem.Mol object at 0x7f5838de4740>, <rdkit.Chem.rdchem.Mol object at 0x7f5838df1000>, <rdkit.Chem.rdchem.Mol object at 0x7f5838df02e0>, <rdkit.Chem.rdchem.Mol object at 0x7f5838df0d60>, <rdkit.Chem.rdchem.Mol object at 0x7f5838df2030>, '.', <rdkit.Chem.rdchem.Mol object at 0x7f5838df20a0>, <rdkit.Chem.rdchem.Mol object at 0x7f5838df04a0>, <rdkit.Chem.rdchem.Mol object at 0x7f5838df1e00>, <rdkit.Chem.rdchem.Mol object at 0x7f5838df1f50>, <rdkit.Chem.rdchem.Mol object at 0x7f5838df09e0>]","[0, 0, 0, 0, 0, 0, 3101, 3102, 3103, 3104, 3105, 1, 3106, 3107, 3108, 3109, 3110]"
PBDB-T,IT-M,-5.297714285714285,-3.4170000000000003,-5.513571428571429,-3.808,1.0,CB,DIO,110.0,PEDOT:PSS,PFN-Br,11.52,11.52,0.95,74.06,"[<rdkit.Chem.rdchem.Mol object at 0x7f5838de7d10>, <rdkit.Chem.rdchem.Mol object at 0x7f5838df2340>, <rdkit.Chem.rdchem.Mol object at 0x7f5838df2260>, <rdkit.Chem.rdchem.Mol object at 0x7f5838df06d0>, <rdkit.Chem.rdchem.Mol object at 0x7f5838df2500>]","[<rdkit.Chem.rdchem.Mol object at 0x7f5838df2650>, <rdkit.Chem.rdchem.Mol object at 0x7f5838df1ee0>, <rdkit.Chem.rdchem.Mol object at 0x7f5838df1700>, <rdkit.Chem.rdchem.Mol object at 0x7f5838df22d0>, <rdkit.Chem.rdchem.Mol object at 0x7f5838df1af0>]","[<rdkit.Chem.rdchem.Mol object at 0x7f5838de7d10>, <rdkit.Chem.rdchem.Mol object at 0x7f5838df2340>, <rdkit.Chem.rdchem.Mol object at 0x7f5838df2260>, <rdkit.Chem.rdchem.Mol object at 0x7f5838df06d0>, <rdkit.Chem.rdchem.Mol object at 0x7f5838df2500>, '.', <rdkit.Chem.rdchem.Mol object at 0x7f5838df2650>, <rdkit.Chem.rdchem.Mol object at 0x7f5838df1ee0>, <rdkit.Chem.rdchem.Mol object at 0x7f5838df1700>, <rdkit.Chem.rdchem.Mol object at 0x7f5838df22d0>, <rdkit.Chem.rdchem.Mol object at 0x7f5838df1af0>]","[0, 0, 0, 0, 0, 0, 3111, 3112, 3113, 3114, 3115, 1, 3116, 3117, 3118, 3119, 3120]"
PBDB-T,DICTiF,-5.297714285714285,-3.4170000000000003,-5.55,-3.62,0.714,CF,DPE,80.0,PEDOT:PSS,PDIN,6.97,7.13,0.98,65.0,"[<rdkit.Chem.rdchem.Mol object at 0x7f5838de6650>, <rdkit.Chem.rdchem.Mol object at 0x7f5838df1230>, <rdkit.Chem.rdchem.Mol object at 0x7f5838df2180>, <rdkit.Chem.rdchem.Mol object at 0x7f5838df1cb0>, <rdkit.Chem.rdchem.Mol object at 0x7f5838df29d0>]","[<rdkit.Chem.rdchem.Mol object at 0x7f5838df2ce0>, <rdkit.Chem.rdchem.Mol object at 0x7f5838df14d0>, <rdkit.Chem.rdchem.Mol object at 0x7f5838df1d20>, <rdkit.Chem.rdchem.Mol object at 0x7f5838df0660>, <rdkit.Chem.rdchem.Mol object at 0x7f5838df1310>]","[<rdkit.Chem.rdchem.Mol object at 0x7f5838de6650>, <rdkit.Chem.rdchem.Mol object at 0x7f5838df1230>, <rdkit.Chem.rdchem.Mol object at 0x7f5838df2180>, <rdkit.Chem.rdchem.Mol object at 0x7f5838df1cb0>, <rdkit.Chem.rdchem.Mol object at 0x7f5838df29d0>, '.', <rdkit.Chem.rdchem.Mol object at 0x7f5838df2ce0>, <rdkit.Chem.rdchem.Mol object at 0x7f5838df14d0>, <rdkit.Chem.rdchem.Mol object at 0x7f5838df1d20>, <rdkit.Chem.rdchem.Mol object at 0x7f5838df0660>, <rdkit.Chem.rdchem.Mol object at 0x7f5838df1310>]","[0, 0, 0, 0, 0, 0, 3121, 3122, 3123, 3124, 3125, 1, 3126, 3127, 3128, 3129, 3130]"
PffBT4T-2OD,BAF-4CN,-5.32,-3.695,-5.7,-3.6,0.741,o-DCB:CB (1:1),DIO,25.0,MoOx,ZnO,8.4,8.44,0.769,70.7,"[<rdkit.Chem.rdchem.Mol object at 0x7f5838de44a0>, <rdkit.Chem.rdchem.Mol object at 0x7f5838df28f0>, <rdkit.Chem.rdchem.Mol object at 0x7f5838df0e40>, <rdkit.Chem.rdchem.Mol object at 0x7f5838df0dd0>, <rdkit.Chem.rdchem.Mol object at 0x7f5838df2570>, <rdkit.Chem.rdchem.Mol object at 0x7f5838df21f0>]","[<rdkit.Chem.rdchem.Mol object at 0x7f5838df1a10>, <rdkit.Chem.rdchem.Mol object at 0x7f5838df1fc0>, <rdkit.Chem.rdchem.Mol object at 0x7f5838df2c00>]","[<rdkit.Chem.rdchem.Mol object at 0x7f5838de44a0>, <rdkit.Chem.rdchem.Mol object at 0x7f5838df28f0>, <rdkit.Chem.rdchem.Mol object at 0x7f5838df0e40>, <rdkit.Chem.rdchem.Mol object at 0x7f5838df0dd0>, <rdkit.Chem.rdchem.Mol object at 0x7f5838df2570>, <rdkit.Chem.rdchem.Mol object at 0x7f5838df21f0>, '.', <rdkit.Chem.rdchem.Mol object at 0x7f5838df1a10>, <rdkit.Chem.rdchem.Mol object at 0x7f5838df1fc0>, <rdkit.Chem.rdchem.Mol object at 0x7f5838df2c00>]","[0, 0, 0, 0, 0, 0, 0, 3131, 3132, 3133, 3134, 3135, 3136, 1, 3137, 3138, 3139]"
PBDB-T,DCF-2HT,-5.297714285714285,-3.4170000000000003,-5.67,-3.72,0.714,CF,PN,25.0,PEDOT:PSS,PDIN,5.71,5.71,1.02,49.5,"[<rdkit.Chem.rdchem.Mol object at 0x7f5838df13f0>, <rdkit.Chem.rdchem.Mol object at 0x7f5838df1e70>, <rdkit.Chem.rdchem.Mol object at 0x7f5838df1d90>, <rdkit.Chem.rdchem.Mol object at 0x7f5838df2c70>, <rdkit.Chem.rdchem.Mol object at 0x7f5838df33e0>]","[<rdkit.Chem.rdchem.Mol object at 0x7f5838df3610>, <rdkit.Chem.rdchem.Mol object at 0x7f5838df1c40>, <rdkit.Chem.rdchem.Mol object at 0x7f5838df18c0>, <rdkit.Chem.rdchem.Mol object at 0x7f5838df2ab0>, <rdkit.Chem.rdchem.Mol object at 0x7f5838df1770>, <rdkit.Chem.rdchem.Mol object at 0x7f5838df15b0>]","[<rdkit.Chem.rdchem.Mol object at 0x7f5838df13f0>, <rdkit.Chem.rdchem.Mol object at 0x7f5838df1e70>, <rdkit.Chem.rdchem.Mol object at 0x7f5838df1d90>, <rdkit.Chem.rdchem.Mol object at 0x7f5838df2c70>, <rdkit.Chem.rdchem.Mol object at 0x7f5838df33e0>, '.', <rdkit.Chem.rdchem.Mol object at 0x7f5838df3610>, <rdkit.Chem.rdchem.Mol object at 0x7f5838df1c40>, <rdkit.Chem.rdchem.Mol object at 0x7f5838df18c0>, <rdkit.Chem.rdchem.Mol object at 0x7f5838df2ab0>, <rdkit.Chem.rdchem.Mol object at 0x7f5838df1770>, <rdkit.Chem.rdchem.Mol object at 0x7f5838df15b0>]","[0, 0, 0, 0, 0, 3140, 3141, 3142, 3143, 3144, 1, 3145, 3146, 3147, 3148, 3149, 3150]"
PTB7-Th,DCF-2HT,-5.204782608695651,-3.5391891891891896,-5.67,-3.72,0.714,CF,PN,25.0,PEDOT:PSS,PDIN,4.83,4.78,0.96,40.04,"[<rdkit.Chem.rdchem.Mol object at 0x7f5838df2110>, <rdkit.Chem.rdchem.Mol object at 0x7f5838df2ff0>, <rdkit.Chem.rdchem.Mol object at 0x7f5838df3450>, <rdkit.Chem.rdchem.Mol object at 0x7f5838df3530>, <rdkit.Chem.rdchem.Mol object at 0x7f5838df1850>, <rdkit.Chem.rdchem.Mol object at 0x7f5838df2f80>, <rdkit.Chem.rdchem.Mol object at 0x7f5838df0970>]","[<rdkit.Chem.rdchem.Mol object at 0x7f5838df1620>, <rdkit.Chem.rdchem.Mol object at 0x7f5838df2dc0>, <rdkit.Chem.rdchem.Mol object at 0x7f5838df2ea0>, <rdkit.Chem.rdchem.Mol object at 0x7f5838df25e0>, <rdkit.Chem.rdchem.Mol object at 0x7f5838df11c0>, <rdkit.Chem.rdchem.Mol object at 0x7f5838df0c80>]","[<rdkit.Chem.rdchem.Mol object at 0x7f5838df2110>, <rdkit.Chem.rdchem.Mol object at 0x7f5838df2ff0>, <rdkit.Chem.rdchem.Mol object at 0x7f5838df3450>, <rdkit.Chem.rdchem.Mol object at 0x7f5838df3530>, <rdkit.Chem.rdchem.Mol object at 0x7f5838df1850>, <rdkit.Chem.rdchem.Mol object at 0x7f5838df2f80>, <rdkit.Chem.rdchem.Mol object at 0x7f5838df0970>, '.', <rdkit.Chem.rdchem.Mol object at 0x7f5838df1620>, <rdkit.Chem.rdchem.Mol object at 0x7f5838df2dc0>, <rdkit.Chem.rdchem.Mol object at 0x7f5838df2ea0>, <rdkit.Chem.rdchem.Mol object at 0x7f5838df25e0>, <rdkit.Chem.rdchem.Mol object at 0x7f5838df11c0>, <rdkit.Chem.rdchem.Mol object at 0x7f5838df0c80>]","[0, 0, 0, 3151, 3152, 3153, 3154, 3155, 3156, 3157, 1, 3158, 3159, 3160, 3161, 3162, 3163]"
FTAZ,ITIC1,-5.43,-3.3200000000000003,-5.48,-3.85,0.769,CF,_,25.0,MoOx,ZnO,8.54,8.54,0.921,56.4,"[<rdkit.Chem.rdchem.Mol object at 0x7f5838df2420>, <rdkit.Chem.rdchem.Mol object at 0x7f5838df2960>, <rdkit.Chem.rdchem.Mol object at 0x7f5838df1540>, <rdkit.Chem.rdchem.Mol object at 0x7f5838df0f90>, <rdkit.Chem.rdchem.Mol object at 0x7f5838df2b20>, <rdkit.Chem.rdchem.Mol object at 0x7f5838df30d0>]","[<rdkit.Chem.rdchem.Mol object at 0x7f5838df0ac0>, <rdkit.Chem.rdchem.Mol object at 0x7f5838df0900>, <rdkit.Chem.rdchem.Mol object at 0x7f5838df0350>, <rdkit.Chem.rdchem.Mol object at 0x7f5838df2b90>, <rdkit.Chem.rdchem.Mol object at 0x7f5838df35a0>]","[<rdkit.Chem.rdchem.Mol object at 0x7f5838df2420>, <rdkit.Chem.rdchem.Mol object at 0x7f5838df2960>, <rdkit.Chem.rdchem.Mol object at 0x7f5838df1540>, <rdkit.Chem.rdchem.Mol object at 0x7f5838df0f90>, <rdkit.Chem.rdchem.Mol object at 0x7f5838df2b20>, <rdkit.Chem.rdchem.Mol object at 0x7f5838df30d0>, '.', <rdkit.Chem.rdchem.Mol object at 0x7f5838df0ac0>, <rdkit.Chem.rdchem.Mol object at 0x7f5838df0900>, <rdkit.Chem.rdchem.Mol object at 0x7f5838df0350>, <rdkit.Chem.rdchem.Mol object at 0x7f5838df2b90>, <rdkit.Chem.rdchem.Mol object at 0x7f5838df35a0>]","[0, 0, 0, 0, 0, 3164, 3165, 3166, 3167, 3168, 3169, 1, 3170, 3171, 3172, 3173, 3174]"
FTAZ,ITIC2,-5.43,-3.3200000000000003,-5.43,-3.8,0.769,CF,_,110.0,MoOx,ZnO,11.0,11.0,0.925,63.0,"[<rdkit.Chem.rdchem.Mol object at 0x7f5838df3990>, <rdkit.Chem.rdchem.Mol object at 0x7f5838df2d50>, <rdkit.Chem.rdchem.Mol object at 0x7f5838df3a70>, <rdkit.Chem.rdchem.Mol object at 0x7f5838df3840>, <rdkit.Chem.rdchem.Mol object at 0x7f5838df3760>, <rdkit.Chem.rdchem.Mol object at 0x7f5838df0cf0>]","[<rdkit.Chem.rdchem.Mol object at 0x7f5838df3220>, <rdkit.Chem.rdchem.Mol object at 0x7f5838df38b0>, <rdkit.Chem.rdchem.Mol object at 0x7f5838df3920>, <rdkit.Chem.rdchem.Mol object at 0x7f5838df2e30>, <rdkit.Chem.rdchem.Mol object at 0x7f5838df3140>, <rdkit.Chem.rdchem.Mol object at 0x7f5838dfd8c0>, <rdkit.Chem.rdchem.Mol object at 0x7f5838dfd930>]","[<rdkit.Chem.rdchem.Mol object at 0x7f5838df3990>, <rdkit.Chem.rdchem.Mol object at 0x7f5838df2d50>, <rdkit.Chem.rdchem.Mol object at 0x7f5838df3a70>, <rdkit.Chem.rdchem.Mol object at 0x7f5838df3840>, <rdkit.Chem.rdchem.Mol object at 0x7f5838df3760>, <rdkit.Chem.rdchem.Mol object at 0x7f5838df0cf0>, '.', <rdkit.Chem.rdchem.Mol object at 0x7f5838df3220>, <rdkit.Chem.rdchem.Mol object at 0x7f5838df38b0>, <rdkit.Chem.rdchem.Mol object at 0x7f5838df3920>, <rdkit.Chem.rdchem.Mol object at 0x7f5838df2e30>, <rdkit.Chem.rdchem.Mol object at 0x7f5838df3140>, <rdkit.Chem.rdchem.Mol object at 0x7f5838dfd8c0>, <rdkit.Chem.rdchem.Mol object at 0x7f5838dfd930>]","[0, 0, 0, 3175, 3176, 3177, 3178, 3179, 3180, 1, 3181, 3182, 3183, 3184, 3185, 3186, 3187]"
PTB7-Th,BT-IC,-5.204782608695651,-3.5391891891891896,-5.3775,-3.8575,0.667,CB:CF (9:1),_,150.0,MoOx,ZnO,8.3,8.45,0.81,59.6,"[<rdkit.Chem.rdchem.Mol object at 0x7f5838df3d10>, <rdkit.Chem.rdchem.Mol object at 0x7f5838df3d80>, <rdkit.Chem.rdchem.Mol object at 0x7f5838df3f40>, <rdkit.Chem.rdchem.Mol object at 0x7f5838df3ed0>, <rdkit.Chem.rdchem.Mol object at 0x7f5838df26c0>, <rdkit.Chem.rdchem.Mol object at 0x7f5838df3ca0>, <rdkit.Chem.rdchem.Mol object at 0x7f5838df2f10>]","[<rdkit.Chem.rdchem.Mol object at 0x7f5838df34c0>, <rdkit.Chem.rdchem.Mol object at 0x7f5838df3a00>, <rdkit.Chem.rdchem.Mol object at 0x7f5838df31b0>, <rdkit.Chem.rdchem.Mol object at 0x7f5838df3ae0>, <rdkit.Chem.rdchem.Mol object at 0x7f5838df27a0>, <rdkit.Chem.rdchem.Mol object at 0x7f5838df3c30>, <rdkit.Chem.rdchem.Mol object at 0x7f5838dfd070>]","[<rdkit.Chem.rdchem.Mol object at 0x7f5838df3d10>, <rdkit.Chem.rdchem.Mol object at 0x7f5838df3d80>, <rdkit.Chem.rdchem.Mol object at 0x7f5838df3f40>, <rdkit.Chem.rdchem.Mol object at 0x7f5838df3ed0>, <rdkit.Chem.rdchem.Mol object at 0x7f5838df26c0>, <rdkit.Chem.rdchem.Mol object at 0x7f5838df3ca0>, <rdkit.Chem.rdchem.Mol object at 0x7f5838df2f10>, '.', <rdkit.Chem.rdchem.Mol object at 0x7f5838df34c0>, <rdkit.Chem.rdchem.Mol object at 0x7f5838df3a00>, <rdkit.Chem.rdchem.Mol object at 0x7f5838df31b0>, <rdkit.Chem.rdchem.Mol object at 0x7f5838df3ae0>, <rdkit.Chem.rdchem.Mol object at 0x7f5838df27a0>, <rdkit.Chem.rdchem.Mol object at 0x7f5838df3c30>, <rdkit.Chem.rdchem.Mol object at 0x7f5838dfd070>]","[0, 0, 3188, 3189, 3190, 3191, 3192, 3193, 3194, 1, 3195, 3196, 3197, 3198, 3199, 3200, 3201]"
PTB7-Th,BT-CIC,-5.204782608695651,-3.5391891891891896,-5.32,-3.85,0.667,CB:CF (9:1),_,150.0,MoOx,ZnO,11.2,11.18,0.7,71.0,"[<rdkit.Chem.rdchem.Mol object at 0x7f5838df37d0>, <rdkit.Chem.rdchem.Mol object at 0x7f5838df2810>, <rdkit.Chem.rdchem.Mol object at 0x7f5838df3300>, <rdkit.Chem.rdchem.Mol object at 0x7f5838df3e60>, <rdkit.Chem.rdchem.Mol object at 0x7f5838df0890>, <rdkit.Chem.rdchem.Mol object at 0x7f5838df2490>, <rdkit.Chem.rdchem.Mol object at 0x7f5838dfd700>]","[<rdkit.Chem.rdchem.Mol object at 0x7f5838df3290>, <rdkit.Chem.rdchem.Mol object at 0x7f5838df36f0>, <rdkit.Chem.rdchem.Mol object at 0x7f5838dfd7e0>, <rdkit.Chem.rdchem.Mol object at 0x7f5838dfcf20>, <rdkit.Chem.rdchem.Mol object at 0x7f5838dfcc10>, <rdkit.Chem.rdchem.Mol object at 0x7f5838dfc430>, <rdkit.Chem.rdchem.Mol object at 0x7f5838dfcac0>, <rdkit.Chem.rdchem.Mol object at 0x7f5838dfd310>]","[<rdkit.Chem.rdchem.Mol object at 0x7f5838df37d0>, <rdkit.Chem.rdchem.Mol object at 0x7f5838df2810>, <rdkit.Chem.rdchem.Mol object at 0x7f5838df3300>, <rdkit.Chem.rdchem.Mol object at 0x7f5838df3e60>, <rdkit.Chem.rdchem.Mol object at 0x7f5838df0890>, <rdkit.Chem.rdchem.Mol object at 0x7f5838df2490>, <rdkit.Chem.rdchem.Mol object at 0x7f5838dfd700>, '.', <rdkit.Chem.rdchem.Mol object at 0x7f5838df3290>, <rdkit.Chem.rdchem.Mol object at 0x7f5838df36f0>, <rdkit.Chem.rdchem.Mol object at 0x7f5838dfd7e0>, <rdkit.Chem.rdchem.Mol object at 0x7f5838dfcf20>, <rdkit.Chem.rdchem.Mol object at 0x7f5838dfcc10>, <rdkit.Chem.rdchem.Mol object at 0x7f5838dfc430>, <rdkit.Chem.rdchem.Mol object at 0x7f5838dfcac0>, <rdkit.Chem.rdchem.Mol object at 0x7f5838dfd310>]","[0, 3202, 3203, 3204, 3205, 3206, 3207, 3208, 1, 3209, 3210, 3211, 3212, 3213, 3214, 3215, 3216]"
FTAZ,IDIC1,-5.43,-3.3200000000000003,-5.51,-3.81,0.667,CF,_,25.0,MoOx,ZnO,7.13,7.13,0.896,58.5,"[<rdkit.Chem.rdchem.Mol object at 0x7f5838df3370>, <rdkit.Chem.rdchem.Mol object at 0x7f5838df3df0>, <rdkit.Chem.rdchem.Mol object at 0x7f5838df3bc0>, <rdkit.Chem.rdchem.Mol object at 0x7f5838dfd5b0>, <rdkit.Chem.rdchem.Mol object at 0x7f5838dfd000>, <rdkit.Chem.rdchem.Mol object at 0x7f5838dfce40>]","[<rdkit.Chem.rdchem.Mol object at 0x7f5838dfc9e0>, <rdkit.Chem.rdchem.Mol object at 0x7f5838dfd460>, <rdkit.Chem.rdchem.Mol object at 0x7f5838df1bd0>, <rdkit.Chem.rdchem.Mol object at 0x7f5838dfd690>, <rdkit.Chem.rdchem.Mol object at 0x7f5838dfd1c0>]","[<rdkit.Chem.rdchem.Mol object at 0x7f5838df3370>, <rdkit.Chem.rdchem.Mol object at 0x7f5838df3df0>, <rdkit.Chem.rdchem.Mol object at 0x7f5838df3bc0>, <rdkit.Chem.rdchem.Mol object at 0x7f5838dfd5b0>, <rdkit.Chem.rdchem.Mol object at 0x7f5838dfd000>, <rdkit.Chem.rdchem.Mol object at 0x7f5838dfce40>, '.', <rdkit.Chem.rdchem.Mol object at 0x7f5838dfc9e0>, <rdkit.Chem.rdchem.Mol object at 0x7f5838dfd460>, <rdkit.Chem.rdchem.Mol object at 0x7f5838df1bd0>, <rdkit.Chem.rdchem.Mol object at 0x7f5838dfd690>, <rdkit.Chem.rdchem.Mol object at 0x7f5838dfd1c0>]","[0, 0, 0, 0, 0, 3217, 3218, 3219, 3220, 3221, 3222, 1, 3223, 3224, 3225, 3226, 3227]"
FTAZ,IHIC1,-5.43,-3.3200000000000003,-5.47,-3.75,0.667,CF,_,25.0,MoOx,ZnO,9.21,9.22,0.95,67.9,"[<rdkit.Chem.rdchem.Mol object at 0x7f5838df3680>, <rdkit.Chem.rdchem.Mol object at 0x7f5838dfd540>, <rdkit.Chem.rdchem.Mol object at 0x7f5838df0c10>, <rdkit.Chem.rdchem.Mol object at 0x7f5838dfc510>, <rdkit.Chem.rdchem.Mol object at 0x7f5838dfcdd0>, <rdkit.Chem.rdchem.Mol object at 0x7f5838dfc5f0>]","[<rdkit.Chem.rdchem.Mol object at 0x7f5838dfcc80>, <rdkit.Chem.rdchem.Mol object at 0x7f5838dfd380>, <rdkit.Chem.rdchem.Mol object at 0x7f5838dfc740>, <rdkit.Chem.rdchem.Mol object at 0x7f5838dfd230>, <rdkit.Chem.rdchem.Mol object at 0x7f5838dfd0e0>]","[<rdkit.Chem.rdchem.Mol object at 0x7f5838df3680>, <rdkit.Chem.rdchem.Mol object at 0x7f5838dfd540>, <rdkit.Chem.rdchem.Mol object at 0x7f5838df0c10>, <rdkit.Chem.rdchem.Mol object at 0x7f5838dfc510>, <rdkit.Chem.rdchem.Mol object at 0x7f5838dfcdd0>, <rdkit.Chem.rdchem.Mol object at 0x7f5838dfc5f0>, '.', <rdkit.Chem.rdchem.Mol object at 0x7f5838dfcc80>, <rdkit.Chem.rdchem.Mol object at 0x7f5838dfd380>, <rdkit.Chem.rdchem.Mol object at 0x7f5838dfc740>, <rdkit.Chem.rdchem.Mol object at 0x7f5838dfd230>, <rdkit.Chem.rdchem.Mol object at 0x7f5838dfd0e0>]","[0, 0, 0, 0, 0, 3228, 3229, 3230, 3231, 3232, 3233, 1, 3234, 3235, 3236, 3237, 3238]"