Donor,Acceptor,HOMO_D_eV,LUMO_D_eV,HOMO_A_eV,LUMO_A_eV,D_A_ratio_m_m,solvent,solvent_additive,annealing_temperature,hole_contact_layer,electron_contact_layer,PCE_percent,calc_PCE_percent,Voc_V,FF_percent,Donor_BRICS,Acceptor_BRICS,DA_pair_BRICS,DA_tokenized_BRICS
PTZPF,BT-2F,-5.41,-3.42,-5.6,-4.0,1.0,CB,CN,120.0,PEDOT:PSS,PFN-Br,8.54,8.59,0.84,53.0,"[<rdkit.Chem.rdchem.Mol object at 0x7f5838c5c740>, <rdkit.Chem.rdchem.Mol object at 0x7f5838c68a50>, <rdkit.Chem.rdchem.Mol object at 0x7f5838c692a0>, <rdkit.Chem.rdchem.Mol object at 0x7f5838c687b0>, <rdkit.Chem.rdchem.Mol object at 0x7f5838c69230>, <rdkit.Chem.rdchem.Mol object at 0x7f5838c68b30>, <rdkit.Chem.rdchem.Mol object at 0x7f5838c69ee0>]","[<rdkit.Chem.rdchem.Mol object at 0x7f5838c6a880>, <rdkit.Chem.rdchem.Mol object at 0x7f5838c69af0>, <rdkit.Chem.rdchem.Mol object at 0x7f5838c68430>, <rdkit.Chem.rdchem.Mol object at 0x7f5838c6a110>, <rdkit.Chem.rdchem.Mol object at 0x7f5838c680b0>, <rdkit.Chem.rdchem.Mol object at 0x7f5838c690e0>, <rdkit.Chem.rdchem.Mol object at 0x7f5838c68660>]","[<rdkit.Chem.rdchem.Mol object at 0x7f5838c5c740>, <rdkit.Chem.rdchem.Mol object at 0x7f5838c68a50>, <rdkit.Chem.rdchem.Mol object at 0x7f5838c692a0>, <rdkit.Chem.rdchem.Mol object at 0x7f5838c687b0>, <rdkit.Chem.rdchem.Mol object at 0x7f5838c69230>, <rdkit.Chem.rdchem.Mol object at 0x7f5838c68b30>, <rdkit.Chem.rdchem.Mol object at 0x7f5838c69ee0>, '.', <rdkit.Chem.rdchem.Mol object at 0x7f5838c6a880>, <rdkit.Chem.rdchem.Mol object at 0x7f5838c69af0>, <rdkit.Chem.rdchem.Mol object at 0x7f5838c68430>, <rdkit.Chem.rdchem.Mol object at 0x7f5838c6a110>, <rdkit.Chem.rdchem.Mol object at 0x7f5838c680b0>, <rdkit.Chem.rdchem.Mol object at 0x7f5838c690e0>, <rdkit.Chem.rdchem.Mol object at 0x7f5838c68660>]","[0, 0, 4357, 4358, 4359, 4360, 4361, 4362, 4363, 1, 4364, 4365, 4366, 4367, 4368, 4369, 4370]"
P3HT,BT3,-5.057777777777777,-2.989444444444445,-5.53,-3.79,3.333,CF,_,120.0,PEDOT:PSS,Ca,2.55,2.55,0.72,61.0,"[<rdkit.Chem.rdchem.Mol object at 0x7f5838c6a810>, <rdkit.Chem.rdchem.Mol object at 0x7f5838c6a8f0>, <rdkit.Chem.rdchem.Mol object at 0x7f5838c68f20>, <rdkit.Chem.rdchem.Mol object at 0x7f5838c69cb0>]","[<rdkit.Chem.rdchem.Mol object at 0x7f5838c698c0>, <rdkit.Chem.rdchem.Mol object at 0x7f5838c68970>, <rdkit.Chem.rdchem.Mol object at 0x7f5838c685f0>, <rdkit.Chem.rdchem.Mol object at 0x7f5838c68e40>]","[<rdkit.Chem.rdchem.Mol object at 0x7f5838c6a810>, <rdkit.Chem.rdchem.Mol object at 0x7f5838c6a8f0>, <rdkit.Chem.rdchem.Mol object at 0x7f5838c68f20>, <rdkit.Chem.rdchem.Mol object at 0x7f5838c69cb0>, '.', <rdkit.Chem.rdchem.Mol object at 0x7f5838c698c0>, <rdkit.Chem.rdchem.Mol object at 0x7f5838c68970>, <rdkit.Chem.rdchem.Mol object at 0x7f5838c685f0>, <rdkit.Chem.rdchem.Mol object at 0x7f5838c68e40>]","[0, 0, 0, 0, 0, 0, 0, 0, 4371, 4372, 4373, 4374, 1, 4375, 4376, 4377, 4378]"
P3HT,BTA3,-5.057777777777777,-2.989444444444445,-5.415,-3.445,2.0,CF,_,130.0,PEDOT:PSS,Ca,5.64,5.64,0.9,65.0,"[<rdkit.Chem.rdchem.Mol object at 0x7f5838c686d0>, <rdkit.Chem.rdchem.Mol object at 0x7f5838c68040>, <rdkit.Chem.rdchem.Mol object at 0x7f5838c6aab0>, <rdkit.Chem.rdchem.Mol object at 0x7f5838c6a570>]","[<rdkit.Chem.rdchem.Mol object at 0x7f5838c6a6c0>, <rdkit.Chem.rdchem.Mol object at 0x7f5838c6a960>, <rdkit.Chem.rdchem.Mol object at 0x7f5838c68ac0>, <rdkit.Chem.rdchem.Mol object at 0x7f5838c78040>, <rdkit.Chem.rdchem.Mol object at 0x7f5838c78200>]","[<rdkit.Chem.rdchem.Mol object at 0x7f5838c686d0>, <rdkit.Chem.rdchem.Mol object at 0x7f5838c68040>, <rdkit.Chem.rdchem.Mol object at 0x7f5838c6aab0>, <rdkit.Chem.rdchem.Mol object at 0x7f5838c6a570>, '.', <rdkit.Chem.rdchem.Mol object at 0x7f5838c6a6c0>, <rdkit.Chem.rdchem.Mol object at 0x7f5838c6a960>, <rdkit.Chem.rdchem.Mol object at 0x7f5838c68ac0>, <rdkit.Chem.rdchem.Mol object at 0x7f5838c78040>, <rdkit.Chem.rdchem.Mol object at 0x7f5838c78200>]","[0, 0, 0, 0, 0, 0, 0, 4379, 4380, 4381, 4382, 1, 4383, 4384, 4385, 4386, 4387]"
P3HT,Qx1b,-5.057777777777777,-2.989444444444445,-5.35,-3.66,0.8,o-DCB,CN,150.0,PEDOT:PSS,Ca,4.81,4.81,0.95,69.0,"[<rdkit.Chem.rdchem.Mol object at 0x7f5838c6b8b0>, <rdkit.Chem.rdchem.Mol object at 0x7f5838c6be60>, <rdkit.Chem.rdchem.Mol object at 0x7f5838c6ab90>, <rdkit.Chem.rdchem.Mol object at 0x7f5838c6b450>]","[<rdkit.Chem.rdchem.Mol object at 0x7f5838c68ba0>, <rdkit.Chem.rdchem.Mol object at 0x7f5838c6ac00>, <rdkit.Chem.rdchem.Mol object at 0x7f5838c6bd10>]","[<rdkit.Chem.rdchem.Mol object at 0x7f5838c6b8b0>, <rdkit.Chem.rdchem.Mol object at 0x7f5838c6be60>, <rdkit.Chem.rdchem.Mol object at 0x7f5838c6ab90>, <rdkit.Chem.rdchem.Mol object at 0x7f5838c6b450>, '.', <rdkit.Chem.rdchem.Mol object at 0x7f5838c68ba0>, <rdkit.Chem.rdchem.Mol object at 0x7f5838c6ac00>, <rdkit.Chem.rdchem.Mol object at 0x7f5838c6bd10>]","[0, 0, 0, 0, 0, 0, 0, 0, 0, 4396, 4397, 4398, 4399, 1, 4400, 4401, 4402]"
P3HT,BTA23,-5.057777777777777,-2.989444444444445,-5.7,-3.57,1.0,CF,_,120.0,PEDOT:PSS,Ca,1.86,1.86,0.9,52.0,"[<rdkit.Chem.rdchem.Mol object at 0x7f5838c6aea0>, <rdkit.Chem.rdchem.Mol object at 0x7f5838c6b370>, <rdkit.Chem.rdchem.Mol object at 0x7f5838c6a490>, <rdkit.Chem.rdchem.Mol object at 0x7f5838c6b060>]","[<rdkit.Chem.rdchem.Mol object at 0x7f5838c697e0>, <rdkit.Chem.rdchem.Mol object at 0x7f5838c6a2d0>, <rdkit.Chem.rdchem.Mol object at 0x7f5838c68740>, <rdkit.Chem.rdchem.Mol object at 0x7f5838c69700>]","[<rdkit.Chem.rdchem.Mol object at 0x7f5838c6aea0>, <rdkit.Chem.rdchem.Mol object at 0x7f5838c6b370>, <rdkit.Chem.rdchem.Mol object at 0x7f5838c6a490>, <rdkit.Chem.rdchem.Mol object at 0x7f5838c6b060>, '.', <rdkit.Chem.rdchem.Mol object at 0x7f5838c697e0>, <rdkit.Chem.rdchem.Mol object at 0x7f5838c6a2d0>, <rdkit.Chem.rdchem.Mol object at 0x7f5838c68740>, <rdkit.Chem.rdchem.Mol object at 0x7f5838c69700>]","[0, 0, 0, 0, 0, 0, 0, 0, 4424, 4425, 4426, 4427, 1, 4428, 4429, 4430, 4431]"
P3HT,BTA27,-5.057777777777777,-2.989444444444445,-6.08,-3.81,1.0,CF,_,100.0,PEDOT:PSS,Ca,0.62,0.62,0.6,36.0,"[<rdkit.Chem.rdchem.Mol object at 0x7f5838c69a80>, <rdkit.Chem.rdchem.Mol object at 0x7f5838c6b290>, <rdkit.Chem.rdchem.Mol object at 0x7f5838c78270>, <rdkit.Chem.rdchem.Mol object at 0x7f5838c6b220>]","[<rdkit.Chem.rdchem.Mol object at 0x7f5838c6ac70>, <rdkit.Chem.rdchem.Mol object at 0x7f5838c6b0d0>, <rdkit.Chem.rdchem.Mol object at 0x7f5838c6aff0>, <rdkit.Chem.rdchem.Mol object at 0x7f5838c6a7a0>, <rdkit.Chem.rdchem.Mol object at 0x7f5838c6ab20>]","[<rdkit.Chem.rdchem.Mol object at 0x7f5838c69a80>, <rdkit.Chem.rdchem.Mol object at 0x7f5838c6b290>, <rdkit.Chem.rdchem.Mol object at 0x7f5838c78270>, <rdkit.Chem.rdchem.Mol object at 0x7f5838c6b220>, '.', <rdkit.Chem.rdchem.Mol object at 0x7f5838c6ac70>, <rdkit.Chem.rdchem.Mol object at 0x7f5838c6b0d0>, <rdkit.Chem.rdchem.Mol object at 0x7f5838c6aff0>, <rdkit.Chem.rdchem.Mol object at 0x7f5838c6a7a0>, <rdkit.Chem.rdchem.Mol object at 0x7f5838c6ab20>]","[0, 0, 0, 0, 0, 0, 0, 4432, 4433, 4434, 4435, 1, 4436, 4437, 4438, 4439, 4440]"
PBDTTz-BP,ITIC,-5.025,-2.97,-5.574146341463415,-3.915,1.0,CB,_,25.0,PEDOT:PSS,Ca,8.03,8.03,0.81,56.0,"[<rdkit.Chem.rdchem.Mol object at 0x7f5838c6af80>, <rdkit.Chem.rdchem.Mol object at 0x7f5838c68900>, <rdkit.Chem.rdchem.Mol object at 0x7f5838c6b140>, <rdkit.Chem.rdchem.Mol object at 0x7f5838c78120>, <rdkit.Chem.rdchem.Mol object at 0x7f5838c68d60>, <rdkit.Chem.rdchem.Mol object at 0x7f5838c78190>, <rdkit.Chem.rdchem.Mol object at 0x7f5838c78890>, <rdkit.Chem.rdchem.Mol object at 0x7f5838c78ac0>]","[<rdkit.Chem.rdchem.Mol object at 0x7f5838c69930>, <rdkit.Chem.rdchem.Mol object at 0x7f5838c78f90>, <rdkit.Chem.rdchem.Mol object at 0x7f5838c6ace0>, <rdkit.Chem.rdchem.Mol object at 0x7f5838c68dd0>, <rdkit.Chem.rdchem.Mol object at 0x7f5838c78d60>]","[<rdkit.Chem.rdchem.Mol object at 0x7f5838c6af80>, <rdkit.Chem.rdchem.Mol object at 0x7f5838c68900>, <rdkit.Chem.rdchem.Mol object at 0x7f5838c6b140>, <rdkit.Chem.rdchem.Mol object at 0x7f5838c78120>, <rdkit.Chem.rdchem.Mol object at 0x7f5838c68d60>, <rdkit.Chem.rdchem.Mol object at 0x7f5838c78190>, <rdkit.Chem.rdchem.Mol object at 0x7f5838c78890>, <rdkit.Chem.rdchem.Mol object at 0x7f5838c78ac0>, '.', <rdkit.Chem.rdchem.Mol object at 0x7f5838c69930>, <rdkit.Chem.rdchem.Mol object at 0x7f5838c78f90>, <rdkit.Chem.rdchem.Mol object at 0x7f5838c6ace0>, <rdkit.Chem.rdchem.Mol object at 0x7f5838c68dd0>, <rdkit.Chem.rdchem.Mol object at 0x7f5838c78d60>]","[0, 0, 0, 4441, 4442, 4443, 4444, 4445, 4446, 4447, 4448, 1, 4449, 4450, 4451, 4452, 4453]"
PBDTTz-N,ITIC,-5.23,-3.52,-5.574146341463415,-3.915,1.0,CB,_,25.0,PEDOT:PSS,Ca,6.61,6.62,0.75,49.0,"[<rdkit.Chem.rdchem.Mol object at 0x7f5838c6ad50>, <rdkit.Chem.rdchem.Mol object at 0x7f5838c6af10>, <rdkit.Chem.rdchem.Mol object at 0x7f5838c69000>, <rdkit.Chem.rdchem.Mol object at 0x7f5838c791c0>, <rdkit.Chem.rdchem.Mol object at 0x7f5838c789e0>, <rdkit.Chem.rdchem.Mol object at 0x7f5838c795b0>, <rdkit.Chem.rdchem.Mol object at 0x7f5838c79150>, <rdkit.Chem.rdchem.Mol object at 0x7f5838c784a0>]","[<rdkit.Chem.rdchem.Mol object at 0x7f5838c6adc0>, <rdkit.Chem.rdchem.Mol object at 0x7f5838c78f20>, <rdkit.Chem.rdchem.Mol object at 0x7f5838c6b990>, <rdkit.Chem.rdchem.Mol object at 0x7f5838c79310>, <rdkit.Chem.rdchem.Mol object at 0x7f5838c793f0>]","[<rdkit.Chem.rdchem.Mol object at 0x7f5838c6ad50>, <rdkit.Chem.rdchem.Mol object at 0x7f5838c6af10>, <rdkit.Chem.rdchem.Mol object at 0x7f5838c69000>, <rdkit.Chem.rdchem.Mol object at 0x7f5838c791c0>, <rdkit.Chem.rdchem.Mol object at 0x7f5838c789e0>, <rdkit.Chem.rdchem.Mol object at 0x7f5838c795b0>, <rdkit.Chem.rdchem.Mol object at 0x7f5838c79150>, <rdkit.Chem.rdchem.Mol object at 0x7f5838c784a0>, '.', <rdkit.Chem.rdchem.Mol object at 0x7f5838c6adc0>, <rdkit.Chem.rdchem.Mol object at 0x7f5838c78f20>, <rdkit.Chem.rdchem.Mol object at 0x7f5838c6b990>, <rdkit.Chem.rdchem.Mol object at 0x7f5838c79310>, <rdkit.Chem.rdchem.Mol object at 0x7f5838c793f0>]","[0, 0, 0, 4454, 4455, 4456, 4457, 4458, 4459, 4460, 4461, 1, 4462, 4463, 4464, 4465, 4466]"
PBDB-T,F-H,-5.297714285714285,-3.4170000000000003,-5.42,-3.79,0.833,CB,_,25.0,PEDOT:PSS,PDINO,9.59,9.46,0.94,67.0,"[<rdkit.Chem.rdchem.Mol object at 0x7f5838c6b7d0>, <rdkit.Chem.rdchem.Mol object at 0x7f5838c79380>, <rdkit.Chem.rdchem.Mol object at 0x7f5838c78660>, <rdkit.Chem.rdchem.Mol object at 0x7f5838c790e0>, <rdkit.Chem.rdchem.Mol object at 0x7f5838c79af0>]","[<rdkit.Chem.rdchem.Mol object at 0x7f5838c69b60>, <rdkit.Chem.rdchem.Mol object at 0x7f5838c79700>, <rdkit.Chem.rdchem.Mol object at 0x7f5838c69540>, <rdkit.Chem.rdchem.Mol object at 0x7f5838c78eb0>]","[<rdkit.Chem.rdchem.Mol object at 0x7f5838c6b7d0>, <rdkit.Chem.rdchem.Mol object at 0x7f5838c79380>, <rdkit.Chem.rdchem.Mol object at 0x7f5838c78660>, <rdkit.Chem.rdchem.Mol object at 0x7f5838c790e0>, <rdkit.Chem.rdchem.Mol object at 0x7f5838c79af0>, '.', <rdkit.Chem.rdchem.Mol object at 0x7f5838c69b60>, <rdkit.Chem.rdchem.Mol object at 0x7f5838c79700>, <rdkit.Chem.rdchem.Mol object at 0x7f5838c69540>, <rdkit.Chem.rdchem.Mol object at 0x7f5838c78eb0>]","[0, 0, 0, 0, 0, 0, 0, 4467, 4468, 4469, 4470, 4471, 1, 4472, 4473, 4474, 4475]"
PBDB-T,F-F,-5.297714285714285,-3.4170000000000003,-5.72,-4.13,0.833,CB,DIO,25.0,PEDOT:PSS,PDINO,10.85,10.85,0.88,71.0,"[<rdkit.Chem.rdchem.Mol object at 0x7f5838c6a1f0>, <rdkit.Chem.rdchem.Mol object at 0x7f5838c79620>, <rdkit.Chem.rdchem.Mol object at 0x7f5838c79000>, <rdkit.Chem.rdchem.Mol object at 0x7f5838c785f0>, <rdkit.Chem.rdchem.Mol object at 0x7f5838c78dd0>]","[<rdkit.Chem.rdchem.Mol object at 0x7f5838c783c0>, <rdkit.Chem.rdchem.Mol object at 0x7f5838c78c10>, <rdkit.Chem.rdchem.Mol object at 0x7f5838c69150>, <rdkit.Chem.rdchem.Mol object at 0x7f5838c7a260>]","[<rdkit.Chem.rdchem.Mol object at 0x7f5838c6a1f0>, <rdkit.Chem.rdchem.Mol object at 0x7f5838c79620>, <rdkit.Chem.rdchem.Mol object at 0x7f5838c79000>, <rdkit.Chem.rdchem.Mol object at 0x7f5838c785f0>, <rdkit.Chem.rdchem.Mol object at 0x7f5838c78dd0>, '.', <rdkit.Chem.rdchem.Mol object at 0x7f5838c783c0>, <rdkit.Chem.rdchem.Mol object at 0x7f5838c78c10>, <rdkit.Chem.rdchem.Mol object at 0x7f5838c69150>, <rdkit.Chem.rdchem.Mol object at 0x7f5838c7a260>]","[0, 0, 0, 0, 0, 0, 0, 4476, 4477, 4478, 4479, 4480, 1, 4481, 4482, 4483, 4484]"
PBDB-T,F-Cl,-5.297714285714285,-3.4170000000000003,-5.62,-4.04,1.0,CB,DIO,25.0,PEDOT:PSS,PDINO,11.47,11.49,0.87,75.0,"[<rdkit.Chem.rdchem.Mol object at 0x7f5838c6aa40>, <rdkit.Chem.rdchem.Mol object at 0x7f5838c79540>, <rdkit.Chem.rdchem.Mol object at 0x7f5838c78ba0>, <rdkit.Chem.rdchem.Mol object at 0x7f5838c79c40>, <rdkit.Chem.rdchem.Mol object at 0x7f5838c79230>]","[<rdkit.Chem.rdchem.Mol object at 0x7f5838c7a500>, <rdkit.Chem.rdchem.Mol object at 0x7f5838c78e40>, <rdkit.Chem.rdchem.Mol object at 0x7f5838c79690>, <rdkit.Chem.rdchem.Mol object at 0x7f5838c7a1f0>]","[<rdkit.Chem.rdchem.Mol object at 0x7f5838c6aa40>, <rdkit.Chem.rdchem.Mol object at 0x7f5838c79540>, <rdkit.Chem.rdchem.Mol object at 0x7f5838c78ba0>, <rdkit.Chem.rdchem.Mol object at 0x7f5838c79c40>, <rdkit.Chem.rdchem.Mol object at 0x7f5838c79230>, '.', <rdkit.Chem.rdchem.Mol object at 0x7f5838c7a500>, <rdkit.Chem.rdchem.Mol object at 0x7f5838c78e40>, <rdkit.Chem.rdchem.Mol object at 0x7f5838c79690>, <rdkit.Chem.rdchem.Mol object at 0x7f5838c7a1f0>]","[0, 0, 0, 0, 0, 0, 0, 4485, 4486, 4487, 4488, 4489, 1, 4490, 4491, 4492, 4493]"
PBDB-T,F-Br,-5.297714285714285,-3.4170000000000003,-5.62,-4.06,1.0,CB,DIO,25.0,PEDOT:PSS,PDINO,12.05,12.05,0.87,76.0,"[<rdkit.Chem.rdchem.Mol object at 0x7f5838c68c80>, <rdkit.Chem.rdchem.Mol object at 0x7f5838c78970>, <rdkit.Chem.rdchem.Mol object at 0x7f5838c78820>, <rdkit.Chem.rdchem.Mol object at 0x7f5838c79fc0>, <rdkit.Chem.rdchem.Mol object at 0x7f5838c78c80>]","[<rdkit.Chem.rdchem.Mol object at 0x7f5838c7ab20>, <rdkit.Chem.rdchem.Mol object at 0x7f5838c7a180>, <rdkit.Chem.rdchem.Mol object at 0x7f5838c794d0>, <rdkit.Chem.rdchem.Mol object at 0x7f5838c7a110>]","[<rdkit.Chem.rdchem.Mol object at 0x7f5838c68c80>, <rdkit.Chem.rdchem.Mol object at 0x7f5838c78970>, <rdkit.Chem.rdchem.Mol object at 0x7f5838c78820>, <rdkit.Chem.rdchem.Mol object at 0x7f5838c79fc0>, <rdkit.Chem.rdchem.Mol object at 0x7f5838c78c80>, '.', <rdkit.Chem.rdchem.Mol object at 0x7f5838c7ab20>, <rdkit.Chem.rdchem.Mol object at 0x7f5838c7a180>, <rdkit.Chem.rdchem.Mol object at 0x7f5838c794d0>, <rdkit.Chem.rdchem.Mol object at 0x7f5838c7a110>]","[0, 0, 0, 0, 0, 0, 0, 4494, 4495, 4496, 4497, 4498, 1, 4499, 4500, 4501, 4502]"
PBDB-T,DF-PCIC,-5.297714285714285,-3.4170000000000003,-5.49,-3.77,0.833,CF,CN,100.0,MoOx,ZnO,11.63,11.34,0.86,72.62,"[<rdkit.Chem.rdchem.Mol object at 0x7f5838c6bed0>, <rdkit.Chem.rdchem.Mol object at 0x7f5838c79070>, <rdkit.Chem.rdchem.Mol object at 0x7f5838c78430>, <rdkit.Chem.rdchem.Mol object at 0x7f5838c79b60>, <rdkit.Chem.rdchem.Mol object at 0x7f5838c797e0>]","[<rdkit.Chem.rdchem.Mol object at 0x7f5838c7aea0>, <rdkit.Chem.rdchem.Mol object at 0x7f5838c79770>, <rdkit.Chem.rdchem.Mol object at 0x7f5838c78900>, <rdkit.Chem.rdchem.Mol object at 0x7f5838c7a3b0>, <rdkit.Chem.rdchem.Mol object at 0x7f5838c79cb0>]","[<rdkit.Chem.rdchem.Mol object at 0x7f5838c6bed0>, <rdkit.Chem.rdchem.Mol object at 0x7f5838c79070>, <rdkit.Chem.rdchem.Mol object at 0x7f5838c78430>, <rdkit.Chem.rdchem.Mol object at 0x7f5838c79b60>, <rdkit.Chem.rdchem.Mol object at 0x7f5838c797e0>, '.', <rdkit.Chem.rdchem.Mol object at 0x7f5838c7aea0>, <rdkit.Chem.rdchem.Mol object at 0x7f5838c79770>, <rdkit.Chem.rdchem.Mol object at 0x7f5838c78900>, <rdkit.Chem.rdchem.Mol object at 0x7f5838c7a3b0>, <rdkit.Chem.rdchem.Mol object at 0x7f5838c79cb0>]","[0, 0, 0, 0, 0, 0, 4503, 4504, 4505, 4506, 4507, 1, 4508, 4509, 4510, 4511, 4512]"
PBDB-T,DF-PCNC,-5.297714285714285,-3.4170000000000003,-5.42,-3.81,0.833,CF,CN,130.0,MoOx,ZnO,10.14,10.27,0.91,72.07,"[<rdkit.Chem.rdchem.Mol object at 0x7f5838c7adc0>, <rdkit.Chem.rdchem.Mol object at 0x7f5838c79460>, <rdkit.Chem.rdchem.Mol object at 0x7f5838c79f50>, <rdkit.Chem.rdchem.Mol object at 0x7f5838c798c0>, <rdkit.Chem.rdchem.Mol object at 0x7f5838c7b1b0>]","[<rdkit.Chem.rdchem.Mol object at 0x7f5838c7b3e0>, <rdkit.Chem.rdchem.Mol object at 0x7f5838c7a810>, <rdkit.Chem.rdchem.Mol object at 0x7f5838c78510>, <rdkit.Chem.rdchem.Mol object at 0x7f5838c7a960>, <rdkit.Chem.rdchem.Mol object at 0x7f5838c7a030>]","[<rdkit.Chem.rdchem.Mol object at 0x7f5838c7adc0>, <rdkit.Chem.rdchem.Mol object at 0x7f5838c79460>, <rdkit.Chem.rdchem.Mol object at 0x7f5838c79f50>, <rdkit.Chem.rdchem.Mol object at 0x7f5838c798c0>, <rdkit.Chem.rdchem.Mol object at 0x7f5838c7b1b0>, '.', <rdkit.Chem.rdchem.Mol object at 0x7f5838c7b3e0>, <rdkit.Chem.rdchem.Mol object at 0x7f5838c7a810>, <rdkit.Chem.rdchem.Mol object at 0x7f5838c78510>, <rdkit.Chem.rdchem.Mol object at 0x7f5838c7a960>, <rdkit.Chem.rdchem.Mol object at 0x7f5838c7a030>]","[0, 0, 0, 0, 0, 0, 4513, 4514, 4515, 4516, 4517, 1, 4518, 4519, 4520, 4521, 4522]"
PTB7-Th,ITCT,-5.204782608695651,-3.5391891891891896,-5.596666666666667,-3.796666666666667,0.833,CF,DIO,80.0,MoOx,ZnO,10.42,10.35,0.95,72.0,"[<rdkit.Chem.rdchem.Mol object at 0x7f5838c7a880>, <rdkit.Chem.rdchem.Mol object at 0x7f5838c7af10>, <rdkit.Chem.rdchem.Mol object at 0x7f5838c79ee0>, <rdkit.Chem.rdchem.Mol object at 0x7f5838c7b060>, <rdkit.Chem.rdchem.Mol object at 0x7f5838c7a8f0>, <rdkit.Chem.rdchem.Mol object at 0x7f5838c7aa40>, <rdkit.Chem.rdchem.Mol object at 0x7f5838c782e0>]","[<rdkit.Chem.rdchem.Mol object at 0x7f5838c7a0a0>, <rdkit.Chem.rdchem.Mol object at 0x7f5838c7b300>, <rdkit.Chem.rdchem.Mol object at 0x7f5838c79850>, <rdkit.Chem.rdchem.Mol object at 0x7f5838c7a7a0>, <rdkit.Chem.rdchem.Mol object at 0x7f5838c7a5e0>]","[<rdkit.Chem.rdchem.Mol object at 0x7f5838c7a880>, <rdkit.Chem.rdchem.Mol object at 0x7f5838c7af10>, <rdkit.Chem.rdchem.Mol object at 0x7f5838c79ee0>, <rdkit.Chem.rdchem.Mol object at 0x7f5838c7b060>, <rdkit.Chem.rdchem.Mol object at 0x7f5838c7a8f0>, <rdkit.Chem.rdchem.Mol object at 0x7f5838c7aa40>, <rdkit.Chem.rdchem.Mol object at 0x7f5838c782e0>, '.', <rdkit.Chem.rdchem.Mol object at 0x7f5838c7a0a0>, <rdkit.Chem.rdchem.Mol object at 0x7f5838c7b300>, <rdkit.Chem.rdchem.Mol object at 0x7f5838c79850>, <rdkit.Chem.rdchem.Mol object at 0x7f5838c7a7a0>, <rdkit.Chem.rdchem.Mol object at 0x7f5838c7a5e0>]","[0, 0, 0, 0, 4523, 4524, 4525, 4526, 4527, 4528, 4529, 1, 4530, 4531, 4532, 4533, 4534]"
PTB7-Th,ITIC,-5.204782608695651,-3.5391891891891896,-5.574146341463415,-3.915,0.769,CF,DIO,25.0,PEDOT:PSS,PDIN,6.8,6.79,0.81,59.0,"[<rdkit.Chem.rdchem.Mol object at 0x7f5838c7ac00>, <rdkit.Chem.rdchem.Mol object at 0x7f5838c7ace0>, <rdkit.Chem.rdchem.Mol object at 0x7f5838c7ae30>, <rdkit.Chem.rdchem.Mol object at 0x7f5838c79a10>, <rdkit.Chem.rdchem.Mol object at 0x7f5838c7a650>, <rdkit.Chem.rdchem.Mol object at 0x7f5838c79d20>, <rdkit.Chem.rdchem.Mol object at 0x7f5838c7af80>]","[<rdkit.Chem.rdchem.Mol object at 0x7f5838c780b0>, <rdkit.Chem.rdchem.Mol object at 0x7f5838c7b530>, <rdkit.Chem.rdchem.Mol object at 0x7f5838c79e00>, <rdkit.Chem.rdchem.Mol object at 0x7f5838c7ac70>, <rdkit.Chem.rdchem.Mol object at 0x7f5838c79a80>]","[<rdkit.Chem.rdchem.Mol object at 0x7f5838c7ac00>, <rdkit.Chem.rdchem.Mol object at 0x7f5838c7ace0>, <rdkit.Chem.rdchem.Mol object at 0x7f5838c7ae30>, <rdkit.Chem.rdchem.Mol object at 0x7f5838c79a10>, <rdkit.Chem.rdchem.Mol object at 0x7f5838c7a650>, <rdkit.Chem.rdchem.Mol object at 0x7f5838c79d20>, <rdkit.Chem.rdchem.Mol object at 0x7f5838c7af80>, '.', <rdkit.Chem.rdchem.Mol object at 0x7f5838c780b0>, <rdkit.Chem.rdchem.Mol object at 0x7f5838c7b530>, <rdkit.Chem.rdchem.Mol object at 0x7f5838c79e00>, <rdkit.Chem.rdchem.Mol object at 0x7f5838c7ac70>, <rdkit.Chem.rdchem.Mol object at 0x7f5838c79a80>]","[0, 0, 0, 0, 4535, 4536, 4537, 4538, 4539, 4540, 4541, 1, 4542, 4543, 4544, 4545, 4546]"