Donor,Acceptor,HOMO_D_eV,LUMO_D_eV,HOMO_A_eV,LUMO_A_eV,D_A_ratio_m_m,solvent,solvent_additive,annealing_temperature,hole_contact_layer,electron_contact_layer,PCE_percent,calc_PCE_percent,Voc_V,FF_percent,Donor_BRICS,Acceptor_BRICS,DA_pair_BRICS,DA_tokenized_BRICS
P3HT,O-IDTBR,-5.057777777777777,-2.989444444444445,-5.535,-3.74,1.0,CB,_,130.0,MoOx,ZnO,6.3,6.0,0.72,60.0,"[<rdkit.Chem.rdchem.Mol object at 0x7f5838d7a1f0>, <rdkit.Chem.rdchem.Mol object at 0x7f5838d7bb50>, <rdkit.Chem.rdchem.Mol object at 0x7f5838d7ab90>, <rdkit.Chem.rdchem.Mol object at 0x7f5838d7aa40>]","[<rdkit.Chem.rdchem.Mol object at 0x7f5838d7ac70>, <rdkit.Chem.rdchem.Mol object at 0x7f5838d79fc0>, <rdkit.Chem.rdchem.Mol object at 0x7f5838d7bdf0>, <rdkit.Chem.rdchem.Mol object at 0x7f5838d7b4c0>, <rdkit.Chem.rdchem.Mol object at 0x7f5838d7af10>]","[<rdkit.Chem.rdchem.Mol object at 0x7f5838d7a1f0>, <rdkit.Chem.rdchem.Mol object at 0x7f5838d7bb50>, <rdkit.Chem.rdchem.Mol object at 0x7f5838d7ab90>, <rdkit.Chem.rdchem.Mol object at 0x7f5838d7aa40>, '.', <rdkit.Chem.rdchem.Mol object at 0x7f5838d7ac70>, <rdkit.Chem.rdchem.Mol object at 0x7f5838d79fc0>, <rdkit.Chem.rdchem.Mol object at 0x7f5838d7bdf0>, <rdkit.Chem.rdchem.Mol object at 0x7f5838d7b4c0>, <rdkit.Chem.rdchem.Mol object at 0x7f5838d7af10>]","[0, 0, 0, 0, 0, 0, 0, 1650, 1651, 1652, 1653, 1, 1654, 1655, 1656, 1657, 1658]"
P3HT,EH-IDTBR,-5.057777777777777,-2.989444444444445,-5.58,-3.9,1.0,CB,_,130.0,MoOx,ZnO,6.0,5.7,0.76,62.0,"[<rdkit.Chem.rdchem.Mol object at 0x7f5838d7adc0>, <rdkit.Chem.rdchem.Mol object at 0x7f5838d785f0>, <rdkit.Chem.rdchem.Mol object at 0x7f5838d6c660>, <rdkit.Chem.rdchem.Mol object at 0x7f5838d79cb0>]","[<rdkit.Chem.rdchem.Mol object at 0x7f5838d7bca0>, <rdkit.Chem.rdchem.Mol object at 0x7f5838d7b290>, <rdkit.Chem.rdchem.Mol object at 0x7f5838d7b6f0>, <rdkit.Chem.rdchem.Mol object at 0x7f5838d7b760>, <rdkit.Chem.rdchem.Mol object at 0x7f5838d7ba00>]","[<rdkit.Chem.rdchem.Mol object at 0x7f5838d7adc0>, <rdkit.Chem.rdchem.Mol object at 0x7f5838d785f0>, <rdkit.Chem.rdchem.Mol object at 0x7f5838d6c660>, <rdkit.Chem.rdchem.Mol object at 0x7f5838d79cb0>, '.', <rdkit.Chem.rdchem.Mol object at 0x7f5838d7bca0>, <rdkit.Chem.rdchem.Mol object at 0x7f5838d7b290>, <rdkit.Chem.rdchem.Mol object at 0x7f5838d7b6f0>, <rdkit.Chem.rdchem.Mol object at 0x7f5838d7b760>, <rdkit.Chem.rdchem.Mol object at 0x7f5838d7ba00>]","[0, 0, 0, 0, 0, 0, 0, 1659, 1660, 1661, 1662, 1, 1663, 1664, 1665, 1666, 1667]"
P3HT,FBR,-5.057777777777777,-2.989444444444445,-5.786666666666666,-3.673333333333333,1.0,CF:DCB (80:20),_,110.0,MoO3,ZnO,4.11,4.11,0.82,63.0,"[<rdkit.Chem.rdchem.Mol object at 0x7f5838d7a5e0>, <rdkit.Chem.rdchem.Mol object at 0x7f5838d79d90>, <rdkit.Chem.rdchem.Mol object at 0x7f5838d6c890>, <rdkit.Chem.rdchem.Mol object at 0x7f5838d6c5f0>]","[<rdkit.Chem.rdchem.Mol object at 0x7f5838d78b30>, <rdkit.Chem.rdchem.Mol object at 0x7f5838d7ae30>, <rdkit.Chem.rdchem.Mol object at 0x7f5838d7b1b0>, <rdkit.Chem.rdchem.Mol object at 0x7f5838d7b140>, <rdkit.Chem.rdchem.Mol object at 0x7f5838d7b610>]","[<rdkit.Chem.rdchem.Mol object at 0x7f5838d7a5e0>, <rdkit.Chem.rdchem.Mol object at 0x7f5838d79d90>, <rdkit.Chem.rdchem.Mol object at 0x7f5838d6c890>, <rdkit.Chem.rdchem.Mol object at 0x7f5838d6c5f0>, '.', <rdkit.Chem.rdchem.Mol object at 0x7f5838d78b30>, <rdkit.Chem.rdchem.Mol object at 0x7f5838d7ae30>, <rdkit.Chem.rdchem.Mol object at 0x7f5838d7b1b0>, <rdkit.Chem.rdchem.Mol object at 0x7f5838d7b140>, <rdkit.Chem.rdchem.Mol object at 0x7f5838d7b610>]","[0, 0, 0, 0, 0, 0, 0, 1668, 1669, 1670, 1671, 1, 1672, 1673, 1674, 1675, 1676]"
P3HT,NAI-FN-NAI(BO),-5.057777777777777,-2.989444444444445,-6.07,-3.96,1.0,CB,_,25.0,PEDOT:PSS,LiF,3.8,3.93,0.9,47.0,"[<rdkit.Chem.rdchem.Mol object at 0x7f5838d7ace0>, <rdkit.Chem.rdchem.Mol object at 0x7f5838d7a6c0>, <rdkit.Chem.rdchem.Mol object at 0x7f5838d6c820>, <rdkit.Chem.rdchem.Mol object at 0x7f5838d6d230>]","[<rdkit.Chem.rdchem.Mol object at 0x7f5838d7b450>, <rdkit.Chem.rdchem.Mol object at 0x7f5838d7a260>, <rdkit.Chem.rdchem.Mol object at 0x7f5838d6ca50>, <rdkit.Chem.rdchem.Mol object at 0x7f5838d6ce40>]","[<rdkit.Chem.rdchem.Mol object at 0x7f5838d7ace0>, <rdkit.Chem.rdchem.Mol object at 0x7f5838d7a6c0>, <rdkit.Chem.rdchem.Mol object at 0x7f5838d6c820>, <rdkit.Chem.rdchem.Mol object at 0x7f5838d6d230>, '.', <rdkit.Chem.rdchem.Mol object at 0x7f5838d7b450>, <rdkit.Chem.rdchem.Mol object at 0x7f5838d7a260>, <rdkit.Chem.rdchem.Mol object at 0x7f5838d6ca50>, <rdkit.Chem.rdchem.Mol object at 0x7f5838d6ce40>]","[0, 0, 0, 0, 0, 0, 0, 0, 1687, 1688, 1689, 1690, 1, 1691, 1692, 1693, 1694]"
P3HT,PI-FN-PI(DT),-5.057777777777777,-2.989444444444445,-6.02,-3.92,1.0,CB,_,25.0,PEDOT:PSS,LiF,2.2,2.16,0.91,48.0,"[<rdkit.Chem.rdchem.Mol object at 0x7f5838d78f20>, <rdkit.Chem.rdchem.Mol object at 0x7f5838d6d700>, <rdkit.Chem.rdchem.Mol object at 0x7f5838d6d8c0>, <rdkit.Chem.rdchem.Mol object at 0x7f5838d6d1c0>]","[<rdkit.Chem.rdchem.Mol object at 0x7f5838d6d070>, <rdkit.Chem.rdchem.Mol object at 0x7f5838d6d150>, <rdkit.Chem.rdchem.Mol object at 0x7f5838d6da10>, <rdkit.Chem.rdchem.Mol object at 0x7f5838d6d690>]","[<rdkit.Chem.rdchem.Mol object at 0x7f5838d78f20>, <rdkit.Chem.rdchem.Mol object at 0x7f5838d6d700>, <rdkit.Chem.rdchem.Mol object at 0x7f5838d6d8c0>, <rdkit.Chem.rdchem.Mol object at 0x7f5838d6d1c0>, '.', <rdkit.Chem.rdchem.Mol object at 0x7f5838d6d070>, <rdkit.Chem.rdchem.Mol object at 0x7f5838d6d150>, <rdkit.Chem.rdchem.Mol object at 0x7f5838d6da10>, <rdkit.Chem.rdchem.Mol object at 0x7f5838d6d690>]","[0, 0, 0, 0, 0, 0, 0, 0, 1703, 1704, 1705, 1706, 1, 1707, 1708, 1709, 1710]"
PTzBI,ITIC,-5.34,-3.46,-5.574146341463415,-3.915,1.0,CB,DBE,130.0,PEDOT:PSS,PFN-Br,10.24,10.24,0.87,64.34,"[<rdkit.Chem.rdchem.Mol object at 0x7f5838d6c740>, <rdkit.Chem.rdchem.Mol object at 0x7f5838d6d620>, <rdkit.Chem.rdchem.Mol object at 0x7f5838d6cac0>, <rdkit.Chem.rdchem.Mol object at 0x7f5838d6ccf0>, <rdkit.Chem.rdchem.Mol object at 0x7f5838d6c510>, <rdkit.Chem.rdchem.Mol object at 0x7f5838d6dd20>]","[<rdkit.Chem.rdchem.Mol object at 0x7f5838d6e180>, <rdkit.Chem.rdchem.Mol object at 0x7f5838d6d930>, <rdkit.Chem.rdchem.Mol object at 0x7f5838d6de00>, <rdkit.Chem.rdchem.Mol object at 0x7f5838d6dc40>, <rdkit.Chem.rdchem.Mol object at 0x7f5838d6c0b0>]","[<rdkit.Chem.rdchem.Mol object at 0x7f5838d6c740>, <rdkit.Chem.rdchem.Mol object at 0x7f5838d6d620>, <rdkit.Chem.rdchem.Mol object at 0x7f5838d6cac0>, <rdkit.Chem.rdchem.Mol object at 0x7f5838d6ccf0>, <rdkit.Chem.rdchem.Mol object at 0x7f5838d6c510>, <rdkit.Chem.rdchem.Mol object at 0x7f5838d6dd20>, '.', <rdkit.Chem.rdchem.Mol object at 0x7f5838d6e180>, <rdkit.Chem.rdchem.Mol object at 0x7f5838d6d930>, <rdkit.Chem.rdchem.Mol object at 0x7f5838d6de00>, <rdkit.Chem.rdchem.Mol object at 0x7f5838d6dc40>, <rdkit.Chem.rdchem.Mol object at 0x7f5838d6c0b0>]","[0, 0, 0, 0, 0, 1711, 1712, 1713, 1714, 1715, 1716, 1, 1717, 1718, 1719, 1720, 1721]"
P3HT,NAI-FN-NAI(HD),-5.057777777777777,-2.989444444444445,-6.06,-3.98,1.0,CB,_,25.0,PEDOT:PSS,LiF,2.8,2.86,0.88,43.0,"[<rdkit.Chem.rdchem.Mol object at 0x7f5838d6c4a0>, <rdkit.Chem.rdchem.Mol object at 0x7f5838d6c120>, <rdkit.Chem.rdchem.Mol object at 0x7f5838d6d540>, <rdkit.Chem.rdchem.Mol object at 0x7f5838d6e2d0>]","[<rdkit.Chem.rdchem.Mol object at 0x7f5838d6da80>, <rdkit.Chem.rdchem.Mol object at 0x7f5838d6cc80>, <rdkit.Chem.rdchem.Mol object at 0x7f5838d6d770>, <rdkit.Chem.rdchem.Mol object at 0x7f5838d6d2a0>]","[<rdkit.Chem.rdchem.Mol object at 0x7f5838d6c4a0>, <rdkit.Chem.rdchem.Mol object at 0x7f5838d6c120>, <rdkit.Chem.rdchem.Mol object at 0x7f5838d6d540>, <rdkit.Chem.rdchem.Mol object at 0x7f5838d6e2d0>, '.', <rdkit.Chem.rdchem.Mol object at 0x7f5838d6da80>, <rdkit.Chem.rdchem.Mol object at 0x7f5838d6cc80>, <rdkit.Chem.rdchem.Mol object at 0x7f5838d6d770>, <rdkit.Chem.rdchem.Mol object at 0x7f5838d6d2a0>]","[0, 0, 0, 0, 0, 0, 0, 0, 1722, 1723, 1724, 1725, 1, 1726, 1727, 1728, 1729]"
FTAZ,INIC,-5.43,-3.3200000000000003,-5.45,-3.88,0.667,CF,DIO,25.0,MoOx,ZnO,7.7,7.49,0.957,57.9,"[<rdkit.Chem.rdchem.Mol object at 0x7f5838d6cf20>, <rdkit.Chem.rdchem.Mol object at 0x7f5838d6c3c0>, <rdkit.Chem.rdchem.Mol object at 0x7f5838d6d0e0>, <rdkit.Chem.rdchem.Mol object at 0x7f5838d6c040>, <rdkit.Chem.rdchem.Mol object at 0x7f5838d6dbd0>, <rdkit.Chem.rdchem.Mol object at 0x7f5838d6e420>]","[<rdkit.Chem.rdchem.Mol object at 0x7f5838d6cb30>, <rdkit.Chem.rdchem.Mol object at 0x7f5838d6dd90>, <rdkit.Chem.rdchem.Mol object at 0x7f5838d6dfc0>, <rdkit.Chem.rdchem.Mol object at 0x7f5838d6e570>, <rdkit.Chem.rdchem.Mol object at 0x7f5838d6e5e0>]","[<rdkit.Chem.rdchem.Mol object at 0x7f5838d6cf20>, <rdkit.Chem.rdchem.Mol object at 0x7f5838d6c3c0>, <rdkit.Chem.rdchem.Mol object at 0x7f5838d6d0e0>, <rdkit.Chem.rdchem.Mol object at 0x7f5838d6c040>, <rdkit.Chem.rdchem.Mol object at 0x7f5838d6dbd0>, <rdkit.Chem.rdchem.Mol object at 0x7f5838d6e420>, '.', <rdkit.Chem.rdchem.Mol object at 0x7f5838d6cb30>, <rdkit.Chem.rdchem.Mol object at 0x7f5838d6dd90>, <rdkit.Chem.rdchem.Mol object at 0x7f5838d6dfc0>, <rdkit.Chem.rdchem.Mol object at 0x7f5838d6e570>, <rdkit.Chem.rdchem.Mol object at 0x7f5838d6e5e0>]","[0, 0, 0, 0, 0, 1739, 1740, 1741, 1742, 1743, 1744, 1, 1745, 1746, 1747, 1748, 1749]"
FTAZ,INIC1,-5.43,-3.3200000000000003,-5.54,-3.97,0.667,CF,DIO,25.0,MoOx,ZnO,10.1,9.93,0.929,64.3,"[<rdkit.Chem.rdchem.Mol object at 0x7f5838d6e9d0>, <rdkit.Chem.rdchem.Mol object at 0x7f5838d6e500>, <rdkit.Chem.rdchem.Mol object at 0x7f5838d6eab0>, <rdkit.Chem.rdchem.Mol object at 0x7f5838d6e030>, <rdkit.Chem.rdchem.Mol object at 0x7f5838d6df50>, <rdkit.Chem.rdchem.Mol object at 0x7f5838d6e3b0>]","[<rdkit.Chem.rdchem.Mol object at 0x7f5838d6c6d0>, <rdkit.Chem.rdchem.Mol object at 0x7f5838d6e8f0>, <rdkit.Chem.rdchem.Mol object at 0x7f5838d6e960>, <rdkit.Chem.rdchem.Mol object at 0x7f5838d6cc10>, <rdkit.Chem.rdchem.Mol object at 0x7f5838d6ec00>]","[<rdkit.Chem.rdchem.Mol object at 0x7f5838d6e9d0>, <rdkit.Chem.rdchem.Mol object at 0x7f5838d6e500>, <rdkit.Chem.rdchem.Mol object at 0x7f5838d6eab0>, <rdkit.Chem.rdchem.Mol object at 0x7f5838d6e030>, <rdkit.Chem.rdchem.Mol object at 0x7f5838d6df50>, <rdkit.Chem.rdchem.Mol object at 0x7f5838d6e3b0>, '.', <rdkit.Chem.rdchem.Mol object at 0x7f5838d6c6d0>, <rdkit.Chem.rdchem.Mol object at 0x7f5838d6e8f0>, <rdkit.Chem.rdchem.Mol object at 0x7f5838d6e960>, <rdkit.Chem.rdchem.Mol object at 0x7f5838d6cc10>, <rdkit.Chem.rdchem.Mol object at 0x7f5838d6ec00>]","[0, 0, 0, 0, 0, 1750, 1751, 1752, 1753, 1754, 1755, 1, 1756, 1757, 1758, 1759, 1760]"
FTAZ,INIC2,-5.43,-3.3200000000000003,-5.52,-3.98,0.667,CF,DIO,25.0,MoOx,ZnO,10.8,10.59,0.903,66.8,"[<rdkit.Chem.rdchem.Mol object at 0x7f5838d6eea0>, <rdkit.Chem.rdchem.Mol object at 0x7f5838d6e880>, <rdkit.Chem.rdchem.Mol object at 0x7f5838d6ef80>, <rdkit.Chem.rdchem.Mol object at 0x7f5838d6eb90>, <rdkit.Chem.rdchem.Mol object at 0x7f5838d6d380>, <rdkit.Chem.rdchem.Mol object at 0x7f5838d6ceb0>]","[<rdkit.Chem.rdchem.Mol object at 0x7f5838d6e730>, <rdkit.Chem.rdchem.Mol object at 0x7f5838d6edc0>, <rdkit.Chem.rdchem.Mol object at 0x7f5838d6ee30>, <rdkit.Chem.rdchem.Mol object at 0x7f5838d6ea40>, <rdkit.Chem.rdchem.Mol object at 0x7f5838d6f0d0>]","[<rdkit.Chem.rdchem.Mol object at 0x7f5838d6eea0>, <rdkit.Chem.rdchem.Mol object at 0x7f5838d6e880>, <rdkit.Chem.rdchem.Mol object at 0x7f5838d6ef80>, <rdkit.Chem.rdchem.Mol object at 0x7f5838d6eb90>, <rdkit.Chem.rdchem.Mol object at 0x7f5838d6d380>, <rdkit.Chem.rdchem.Mol object at 0x7f5838d6ceb0>, '.', <rdkit.Chem.rdchem.Mol object at 0x7f5838d6e730>, <rdkit.Chem.rdchem.Mol object at 0x7f5838d6edc0>, <rdkit.Chem.rdchem.Mol object at 0x7f5838d6ee30>, <rdkit.Chem.rdchem.Mol object at 0x7f5838d6ea40>, <rdkit.Chem.rdchem.Mol object at 0x7f5838d6f0d0>]","[0, 0, 0, 0, 0, 1761, 1762, 1763, 1764, 1765, 1766, 1, 1767, 1768, 1769, 1770, 1771]"
FTAZ,INIC3,-5.43,-3.3200000000000003,-5.52,-4.02,0.667,CF,DIO,25.0,MoOx,ZnO,11.5,11.23,0.857,67.4,"[<rdkit.Chem.rdchem.Mol object at 0x7f5838d6f370>, <rdkit.Chem.rdchem.Mol object at 0x7f5838d6ed50>, <rdkit.Chem.rdchem.Mol object at 0x7f5838d6f450>, <rdkit.Chem.rdchem.Mol object at 0x7f5838d6f060>, <rdkit.Chem.rdchem.Mol object at 0x7f5838d6c2e0>, <rdkit.Chem.rdchem.Mol object at 0x7f5838d6eb20>]","[<rdkit.Chem.rdchem.Mol object at 0x7f5838d6ec70>, <rdkit.Chem.rdchem.Mol object at 0x7f5838d6f290>, <rdkit.Chem.rdchem.Mol object at 0x7f5838d6f300>, <rdkit.Chem.rdchem.Mol object at 0x7f5838d6ef10>, <rdkit.Chem.rdchem.Mol object at 0x7f5838d6f5a0>]","[<rdkit.Chem.rdchem.Mol object at 0x7f5838d6f370>, <rdkit.Chem.rdchem.Mol object at 0x7f5838d6ed50>, <rdkit.Chem.rdchem.Mol object at 0x7f5838d6f450>, <rdkit.Chem.rdchem.Mol object at 0x7f5838d6f060>, <rdkit.Chem.rdchem.Mol object at 0x7f5838d6c2e0>, <rdkit.Chem.rdchem.Mol object at 0x7f5838d6eb20>, '.', <rdkit.Chem.rdchem.Mol object at 0x7f5838d6ec70>, <rdkit.Chem.rdchem.Mol object at 0x7f5838d6f290>, <rdkit.Chem.rdchem.Mol object at 0x7f5838d6f300>, <rdkit.Chem.rdchem.Mol object at 0x7f5838d6ef10>, <rdkit.Chem.rdchem.Mol object at 0x7f5838d6f5a0>]","[0, 0, 0, 0, 0, 1772, 1773, 1774, 1775, 1776, 1777, 1, 1778, 1779, 1780, 1781, 1782]"
PTB7-Th,F6IC,-5.204782608695651,-3.5391891891891896,-5.66,-4.02,0.588,CF,DPE,25.0,MoOx,ZnO,7.1,7.07,0.611,64.0,"[<rdkit.Chem.rdchem.Mol object at 0x7f5838d6f920>, <rdkit.Chem.rdchem.Mol object at 0x7f5838d6f6f0>, <rdkit.Chem.rdchem.Mol object at 0x7f5838d6f7d0>, <rdkit.Chem.rdchem.Mol object at 0x7f5838d6f760>, <rdkit.Chem.rdchem.Mol object at 0x7f5838d6e340>, <rdkit.Chem.rdchem.Mol object at 0x7f5838d6f610>, <rdkit.Chem.rdchem.Mol object at 0x7f5838d6e810>]","[<rdkit.Chem.rdchem.Mol object at 0x7f5838d6e1f0>, <rdkit.Chem.rdchem.Mol object at 0x7f5838d6f840>, <rdkit.Chem.rdchem.Mol object at 0x7f5838d6e6c0>, <rdkit.Chem.rdchem.Mol object at 0x7f5838d6f3e0>, <rdkit.Chem.rdchem.Mol object at 0x7f5838d6fae0>]","[<rdkit.Chem.rdchem.Mol object at 0x7f5838d6f920>, <rdkit.Chem.rdchem.Mol object at 0x7f5838d6f6f0>, <rdkit.Chem.rdchem.Mol object at 0x7f5838d6f7d0>, <rdkit.Chem.rdchem.Mol object at 0x7f5838d6f760>, <rdkit.Chem.rdchem.Mol object at 0x7f5838d6e340>, <rdkit.Chem.rdchem.Mol object at 0x7f5838d6f610>, <rdkit.Chem.rdchem.Mol object at 0x7f5838d6e810>, '.', <rdkit.Chem.rdchem.Mol object at 0x7f5838d6e1f0>, <rdkit.Chem.rdchem.Mol object at 0x7f5838d6f840>, <rdkit.Chem.rdchem.Mol object at 0x7f5838d6e6c0>, <rdkit.Chem.rdchem.Mol object at 0x7f5838d6f3e0>, <rdkit.Chem.rdchem.Mol object at 0x7f5838d6fae0>]","[0, 0, 0, 0, 1783, 1784, 1785, 1786, 1787, 1788, 1789, 1, 1790, 1791, 1792, 1793, 1794]"
PTB7-Th,F8IC,-5.204782608695651,-3.5391891891891896,-5.43,-4.0,0.588,CF,DPE,25.0,MoOx,ZnO,10.9,10.87,0.64,67.6,"[<rdkit.Chem.rdchem.Mol object at 0x7f5838d6fe60>, <rdkit.Chem.rdchem.Mol object at 0x7f5838d6fc30>, <rdkit.Chem.rdchem.Mol object at 0x7f5838d6fd10>, <rdkit.Chem.rdchem.Mol object at 0x7f5838d6fca0>, <rdkit.Chem.rdchem.Mol object at 0x7f5838d6e7a0>, <rdkit.Chem.rdchem.Mol object at 0x7f5838d6fb50>, <rdkit.Chem.rdchem.Mol object at 0x7f5838d6f8b0>]","[<rdkit.Chem.rdchem.Mol object at 0x7f5838d6f1b0>, <rdkit.Chem.rdchem.Mol object at 0x7f5838d6fd80>, <rdkit.Chem.rdchem.Mol object at 0x7f5838d6f680>, <rdkit.Chem.rdchem.Mol object at 0x7f5838d6fa00>, <rdkit.Chem.rdchem.Mol object at 0x7f5838d882e0>]","[<rdkit.Chem.rdchem.Mol object at 0x7f5838d6fe60>, <rdkit.Chem.rdchem.Mol object at 0x7f5838d6fc30>, <rdkit.Chem.rdchem.Mol object at 0x7f5838d6fd10>, <rdkit.Chem.rdchem.Mol object at 0x7f5838d6fca0>, <rdkit.Chem.rdchem.Mol object at 0x7f5838d6e7a0>, <rdkit.Chem.rdchem.Mol object at 0x7f5838d6fb50>, <rdkit.Chem.rdchem.Mol object at 0x7f5838d6f8b0>, '.', <rdkit.Chem.rdchem.Mol object at 0x7f5838d6f1b0>, <rdkit.Chem.rdchem.Mol object at 0x7f5838d6fd80>, <rdkit.Chem.rdchem.Mol object at 0x7f5838d6f680>, <rdkit.Chem.rdchem.Mol object at 0x7f5838d6fa00>, <rdkit.Chem.rdchem.Mol object at 0x7f5838d882e0>]","[0, 0, 0, 0, 1795, 1796, 1797, 1798, 1799, 1800, 1801, 1, 1802, 1803, 1804, 1805, 1806]"
PBDTTT-C-T,DC-IDT2T,-5.128,-3.268,-5.43,-3.85,1.2,o-DCB:CF (6.667:1),_,25.0,PEDOT:PSS,Ca,3.93,3.92,0.9,52.3,"[<rdkit.Chem.rdchem.Mol object at 0x7f5838d6d000>, <rdkit.Chem.rdchem.Mol object at 0x7f5838d6e0a0>, <rdkit.Chem.rdchem.Mol object at 0x7f5838d6dcb0>, <rdkit.Chem.rdchem.Mol object at 0x7f5838d6fdf0>, <rdkit.Chem.rdchem.Mol object at 0x7f5838d88890>]","[<rdkit.Chem.rdchem.Mol object at 0x7f5838d6c900>, <rdkit.Chem.rdchem.Mol object at 0x7f5838d889e0>, <rdkit.Chem.rdchem.Mol object at 0x7f5838d6f4c0>, <rdkit.Chem.rdchem.Mol object at 0x7f5838d88200>, <rdkit.Chem.rdchem.Mol object at 0x7f5838d88d60>, <rdkit.Chem.rdchem.Mol object at 0x7f5838d88740>]","[<rdkit.Chem.rdchem.Mol object at 0x7f5838d6d000>, <rdkit.Chem.rdchem.Mol object at 0x7f5838d6e0a0>, <rdkit.Chem.rdchem.Mol object at 0x7f5838d6dcb0>, <rdkit.Chem.rdchem.Mol object at 0x7f5838d6fdf0>, <rdkit.Chem.rdchem.Mol object at 0x7f5838d88890>, '.', <rdkit.Chem.rdchem.Mol object at 0x7f5838d6c900>, <rdkit.Chem.rdchem.Mol object at 0x7f5838d889e0>, <rdkit.Chem.rdchem.Mol object at 0x7f5838d6f4c0>, <rdkit.Chem.rdchem.Mol object at 0x7f5838d88200>, <rdkit.Chem.rdchem.Mol object at 0x7f5838d88d60>, <rdkit.Chem.rdchem.Mol object at 0x7f5838d88740>]","[0, 0, 0, 0, 0, 1819, 1820, 1821, 1822, 1823, 1, 1824, 1825, 1826, 1827, 1828, 1829]"
Pff4TBT-2DT,FBR,-5.34,-3.7,-5.786666666666666,-3.673333333333333,1.0,CB,_,25.0,MoOx,ZnO,7.8,7.86,1.12,61.0,"[<rdkit.Chem.rdchem.Mol object at 0x7f5838d6fed0>, <rdkit.Chem.rdchem.Mol object at 0x7f5838d88c80>, <rdkit.Chem.rdchem.Mol object at 0x7f5838d88dd0>, <rdkit.Chem.rdchem.Mol object at 0x7f5838d88c10>, <rdkit.Chem.rdchem.Mol object at 0x7f5838d885f0>, <rdkit.Chem.rdchem.Mol object at 0x7f5838d88ac0>]","[<rdkit.Chem.rdchem.Mol object at 0x7f5838d6f990>, <rdkit.Chem.rdchem.Mol object at 0x7f5838d88120>, <rdkit.Chem.rdchem.Mol object at 0x7f5838d88eb0>, <rdkit.Chem.rdchem.Mol object at 0x7f5838d884a0>, <rdkit.Chem.rdchem.Mol object at 0x7f5838d88b30>]","[<rdkit.Chem.rdchem.Mol object at 0x7f5838d6fed0>, <rdkit.Chem.rdchem.Mol object at 0x7f5838d88c80>, <rdkit.Chem.rdchem.Mol object at 0x7f5838d88dd0>, <rdkit.Chem.rdchem.Mol object at 0x7f5838d88c10>, <rdkit.Chem.rdchem.Mol object at 0x7f5838d885f0>, <rdkit.Chem.rdchem.Mol object at 0x7f5838d88ac0>, '.', <rdkit.Chem.rdchem.Mol object at 0x7f5838d6f990>, <rdkit.Chem.rdchem.Mol object at 0x7f5838d88120>, <rdkit.Chem.rdchem.Mol object at 0x7f5838d88eb0>, <rdkit.Chem.rdchem.Mol object at 0x7f5838d884a0>, <rdkit.Chem.rdchem.Mol object at 0x7f5838d88b30>]","[0, 0, 0, 0, 0, 1830, 1831, 1832, 1833, 1834, 1835, 1, 1836, 1837, 1838, 1839, 1840]"
Pff4TBT-2DT,FTTB,-5.34,-3.7,-5.65,-3.62,1.0,CB,_,25.0,MoOx,ZnO,5.0,4.87,1.05,45.0,"[<rdkit.Chem.rdchem.Mol object at 0x7f5838d6f530>, <rdkit.Chem.rdchem.Mol object at 0x7f5838d88580>, <rdkit.Chem.rdchem.Mol object at 0x7f5838d88a50>, <rdkit.Chem.rdchem.Mol object at 0x7f5838d89000>, <rdkit.Chem.rdchem.Mol object at 0x7f5838d88660>, <rdkit.Chem.rdchem.Mol object at 0x7f5838d89070>]","[<rdkit.Chem.rdchem.Mol object at 0x7f5838d89380>, <rdkit.Chem.rdchem.Mol object at 0x7f5838d89150>, <rdkit.Chem.rdchem.Mol object at 0x7f5838d88900>, <rdkit.Chem.rdchem.Mol object at 0x7f5838d88cf0>, <rdkit.Chem.rdchem.Mol object at 0x7f5838d88f90>]","[<rdkit.Chem.rdchem.Mol object at 0x7f5838d6f530>, <rdkit.Chem.rdchem.Mol object at 0x7f5838d88580>, <rdkit.Chem.rdchem.Mol object at 0x7f5838d88a50>, <rdkit.Chem.rdchem.Mol object at 0x7f5838d89000>, <rdkit.Chem.rdchem.Mol object at 0x7f5838d88660>, <rdkit.Chem.rdchem.Mol object at 0x7f5838d89070>, '.', <rdkit.Chem.rdchem.Mol object at 0x7f5838d89380>, <rdkit.Chem.rdchem.Mol object at 0x7f5838d89150>, <rdkit.Chem.rdchem.Mol object at 0x7f5838d88900>, <rdkit.Chem.rdchem.Mol object at 0x7f5838d88cf0>, <rdkit.Chem.rdchem.Mol object at 0x7f5838d88f90>]","[0, 0, 0, 0, 0, 1841, 1842, 1843, 1844, 1845, 1846, 1, 1847, 1848, 1849, 1850, 1851]"