Donor,Acceptor,HOMO_D_eV,LUMO_D_eV,HOMO_A_eV,LUMO_A_eV,D_A_ratio_m_m,solvent,total_solids_conc_mg_mL,solvent_additive,annealing_temperature,hole_contact_layer,electron_contact_layer,PCE_percent,calc_PCE_percent,Voc_V,FF_percent,Donor_BRICS,Acceptor_BRICS,DA_pair_BRICS,DA_tokenized_BRICS
PBDTTz-N,ITIC,-5.23,-3.52,-5.57675,-3.918163265306122,1.0,CB,14.0,_,25,PEDOT:PSS,Ca,6.61,6.62,0.75,49.0,"['CCCCCCCCC(C)CCCCCC', 'O', 'CCCCCCC(C)CCCC', 'Cc1cccs1', 'c1ccsc1', 'Fc1cc2nn(S)nc2cc1F', 'c1ccc2ccccc2c1', 'Cc1cc2cc3sccc3cc2s1']","['N#CCC#N', 'O=C1CCc2ccccc21', 'C', 'CCCCCC', 'c1ccc(C2(c3ccccc3)c3cc4c(cc3-c3sc5ccsc5c32)C(c2ccccc2)(c2ccccc2)c2c-4sc3ccsc23)cc1']","['CCCCCCCCC(C)CCCCCC', 'O', 'CCCCCCC(C)CCCC', 'Cc1cccs1', 'c1ccsc1', 'Fc1cc2nn(S)nc2cc1F', 'c1ccc2ccccc2c1', 'Cc1cc2cc3sccc3cc2s1', '.', 'N#CCC#N', 'O=C1CCc2ccccc21', 'C', 'CCCCCC', 'c1ccc(C2(c3ccccc3)c3cc4c(cc3-c3sc5ccsc5c32)C(c2ccccc2)(c2ccccc2)c2c-4sc3ccsc23)cc1']","[0, 0, 0, 16, 2, 32, 5, 6, 57, 198, 8, 1, 9, 10, 11, 12, 14]"
PBDB-T,F-H,-5.297714285714285,-3.4170000000000003,-5.42,-3.79,0.833,CB,22.0,_,25,PEDOT:PSS,PDINO,9.59,9.46,0.94,67.0,"['CCCCC(C)CC', 'Cc1cccs1', 'c1ccsc1', 'O=C1c2cscc2C(=O)c2cscc21', 'Cc1cc2cc3sccc3cc2s1']","['N#CCC#N', 'O=C1CCc2ccccc21', 'C', 'CCCCCCCCC1(CCCCCCCC)c2cc3c(cc2-c2cc4c(cc21)-c1sccc1C4(CCCCCCCC)CCCCCCCC)C(CCCCCCCC)(CCCCCCCC)c1ccsc1-3']","['CCCCC(C)CC', 'Cc1cccs1', 'c1ccsc1', 'O=C1c2cscc2C(=O)c2cscc21', 'Cc1cc2cc3sccc3cc2s1', '.', 'N#CCC#N', 'O=C1CCc2ccccc21', 'C', 'CCCCCCCCC1(CCCCCCCC)c2cc3c(cc2-c2cc4c(cc21)-c1sccc1C4(CCCCCCCC)CCCCCCCC)C(CCCCCCCC)(CCCCCCCC)c1ccsc1-3']","[0, 0, 0, 0, 0, 0, 0, 3, 5, 6, 29, 8, 1, 9, 10, 11, 94]"
PBDB-T,DF-PCIC,-5.297714285714285,-3.4170000000000003,-5.49,-3.77,0.833,CF,20.0,CN,100,MoOx,ZnO,11.63,11.34,0.86,72.62,"['CCCCC(C)CC', 'Cc1cccs1', 'c1ccsc1', 'O=C1c2cscc2C(=O)c2cscc21', 'Cc1cc2cc3sccc3cc2s1']","['N#CCC#N', 'O=C1CCc2ccccc21', 'C', 'CCCCC(CC)CC1(CCCCC(C)CC)c2ccsc2-c2sccc21', 'CCCCC(CC)CC1(CC(CC)CCCC)c2ccsc2-c2sccc21', 'Fc1ccc(F)cc1']","['CCCCC(C)CC', 'Cc1cccs1', 'c1ccsc1', 'O=C1c2cscc2C(=O)c2cscc21', 'Cc1cc2cc3sccc3cc2s1', '.', 'N#CCC#N', 'O=C1CCc2ccccc21', 'C', 'CCCCC(CC)CC1(CCCCC(C)CC)c2ccsc2-c2sccc21', 'CCCCC(CC)CC1(CC(CC)CCCC)c2ccsc2-c2sccc21', 'Fc1ccc(F)cc1']","[0, 0, 0, 0, 0, 3, 5, 6, 29, 8, 1, 9, 10, 11, 200, 143, 201]"
PBDB-T,DF-PCNC,-5.297714285714285,-3.4170000000000003,-5.42,-3.81,0.833,CF,20.0,CN,130,MoOx,ZnO,10.14,10.27,0.91,72.07,"['CCCCC(C)CC', 'Cc1cccs1', 'c1ccsc1', 'O=C1c2cscc2C(=O)c2cscc21', 'Cc1cc2cc3sccc3cc2s1']","['N#CCC#N', 'O=C1CCc2cc3ccccc3cc21', 'C', 'CCCCC(CC)CC1(CCCCC(C)CC)c2ccsc2-c2sccc21', 'CCCCC(CC)CC1(CC(CC)CCCC)c2ccsc2-c2sccc21', 'Fc1ccc(F)cc1']","['CCCCC(C)CC', 'Cc1cccs1', 'c1ccsc1', 'O=C1c2cscc2C(=O)c2cscc21', 'Cc1cc2cc3sccc3cc2s1', '.', 'N#CCC#N', 'O=C1CCc2cc3ccccc3cc21', 'C', 'CCCCC(CC)CC1(CCCCC(C)CC)c2ccsc2-c2sccc21', 'CCCCC(CC)CC1(CC(CC)CCCC)c2ccsc2-c2sccc21', 'Fc1ccc(F)cc1']","[0, 0, 0, 0, 0, 3, 5, 6, 29, 8, 1, 9, 37, 11, 200, 143, 201]"
PTB7-Th,ITCT,-5.213181818181817,-3.541944444444445,-5.596666666666667,-3.796666666666667,0.833,CF,15.0,DIO,80,MoOx,ZnO,10.42,10.35,0.95,72.0,"['O', 'CCCCC(C)CC', 'C=O', 'CCCCC(C)CC', 'Cc1scc2scc(F)c12', 'c1ccsc1', 'Cc1cc2cc3sccc3cc2s1']","['N#CCC#N', 'O=C1CCc2cscc21', 'C', 'CCCCCC', 'c1ccc(C2(c3ccccc3)c3cc4c(cc3-c3sc5ccsc5c32)C(c2ccccc2)(c2ccccc2)c2c-4sc3ccsc23)cc1']","['O', 'CCCCC(C)CC', 'C=O', 'CCCCC(C)CC', 'Cc1scc2scc(F)c12', 'c1ccsc1', 'Cc1cc2cc3sccc3cc2s1', '.', 'N#CCC#N', 'O=C1CCc2cscc21', 'C', 'CCCCCC', 'c1ccc(C2(c3ccccc3)c3cc4c(cc3-c3sc5ccsc5c32)C(c2ccccc2)(c2ccccc2)c2c-4sc3ccsc23)cc1']","[0, 0, 0, 0, 2, 3, 4, 3, 33, 6, 8, 1, 9, 40, 11, 12, 14]"
PTB7-Th,ITIC,-5.213181818181817,-3.541944444444445,-5.57675,-3.918163265306122,0.769,CF,25.0,DIO,25,PEDOT:PSS,PDIN,6.8,6.79,0.81,59.0,"['O', 'CCCCC(C)CC', 'C=O', 'CCCCC(C)CC', 'Cc1scc2scc(F)c12', 'c1ccsc1', 'Cc1cc2cc3sccc3cc2s1']","['N#CCC#N', 'O=C1CCc2ccccc21', 'C', 'CCCCCC', 'c1ccc(C2(c3ccccc3)c3cc4c(cc3-c3sc5ccsc5c32)C(c2ccccc2)(c2ccccc2)c2c-4sc3ccsc23)cc1']","['O', 'CCCCC(C)CC', 'C=O', 'CCCCC(C)CC', 'Cc1scc2scc(F)c12', 'c1ccsc1', 'Cc1cc2cc3sccc3cc2s1', '.', 'N#CCC#N', 'O=C1CCc2ccccc21', 'C', 'CCCCCC', 'c1ccc(C2(c3ccccc3)c3cc4c(cc3-c3sc5ccsc5c32)C(c2ccccc2)(c2ccccc2)c2c-4sc3ccsc23)cc1']","[0, 0, 0, 0, 2, 3, 4, 3, 33, 6, 8, 1, 9, 10, 11, 12, 14]"
PTB7-Th,IDIC,-5.213181818181817,-3.541944444444445,-5.706,-4.002666666666667,1.0,CF,12.0,_,25,MoOx,ZnO,5.24,4.94,0.81,56.0,"['O', 'CCCCC(C)CC', 'C=O', 'CCCCC(C)CC', 'Cc1scc2scc(F)c12', 'c1ccsc1', 'Cc1cc2cc3sccc3cc2s1']","['N#CCC#N', 'O=C1CCc2ccccc21', 'C', 'CCCCCCC1(CCCCCC)c2cc3c(cc2-c2sccc21)C(CCCCCC)(CCCCCC)c1ccsc1-3']","['O', 'CCCCC(C)CC', 'C=O', 'CCCCC(C)CC', 'Cc1scc2scc(F)c12', 'c1ccsc1', 'Cc1cc2cc3sccc3cc2s1', '.', 'N#CCC#N', 'O=C1CCc2ccccc21', 'C', 'CCCCCCC1(CCCCCC)c2cc3c(cc2-c2sccc21)C(CCCCCC)(CCCCCC)c1ccsc1-3']","[0, 0, 0, 0, 0, 2, 3, 4, 3, 33, 6, 8, 1, 9, 10, 11, 28]"
PTB7-Th,IEICO-4F,-5.213181818181817,-3.541944444444445,-5.309971428571429,-3.851028571428572,0.667,CB,25.0,_,100,PEDOT:PSS,PFN-Br,10.0,9.95,0.74,59.0,"['O', 'CCCCC(C)CC', 'C=O', 'CCCCC(C)CC', 'Cc1scc2scc(F)c12', 'c1ccsc1', 'Cc1cc2cc3sccc3cc2s1']","['CCCCC(C)CC', 'O', 'N#CCC#N', 'O=C1CCc2cc(F)c(F)cc21', 'C', 'CCCCCC', 'c1ccsc1', 'c1ccc(C2(c3ccccc3)c3cc4c(cc3-c3sccc32)C(c2ccccc2)(c2ccccc2)c2ccsc2-4)cc1']","['O', 'CCCCC(C)CC', 'C=O', 'CCCCC(C)CC', 'Cc1scc2scc(F)c12', 'c1ccsc1', 'Cc1cc2cc3sccc3cc2s1', '.', 'CCCCC(C)CC', 'O', 'N#CCC#N', 'O=C1CCc2cc(F)c(F)cc21', 'C', 'CCCCCC', 'c1ccsc1', 'c1ccc(C2(c3ccccc3)c3cc4c(cc3-c3sccc32)C(c2ccccc2)(c2ccccc2)c2ccsc2-4)cc1']","[0, 2, 3, 4, 3, 33, 6, 8, 1, 3, 2, 9, 39, 11, 12, 6, 36]"
PBDB-T,IDTTIC,-5.297714285714285,-3.4170000000000003,-5.68,-3.84,1.0,CB,20.0,_,25,MoOx,ZnO/PFN-Br,11.2,11.19,0.919,70.4,"['CCCCC(C)CC', 'Cc1cccs1', 'c1ccsc1', 'O=C1c2cscc2C(=O)c2cscc21', 'Cc1cc2cc3sccc3cc2s1']","['N#CCC#N', 'O=C1CCc2ccccc21', 'C', 'CCCCCCCCC(CCCCCC)CC1(CCCCCCCCC(C)CCCCCC)c2cc3c(cc2-c2sc4ccsc4c21)C(CC(CCCCCC)CCCCCCCC)(CC(CCCCCC)CCCCCCCC)c1c-3sc2ccsc12']","['CCCCC(C)CC', 'Cc1cccs1', 'c1ccsc1', 'O=C1c2cscc2C(=O)c2cscc21', 'Cc1cc2cc3sccc3cc2s1', '.', 'N#CCC#N', 'O=C1CCc2ccccc21', 'C', 'CCCCCCCCC(CCCCCC)CC1(CCCCCCCCC(C)CCCCCC)c2cc3c(cc2-c2sc4ccsc4c21)C(CC(CCCCCC)CCCCCCCC)(CC(CCCCCC)CCCCCCCC)c1c-3sc2ccsc12']","[0, 0, 0, 0, 0, 0, 0, 3, 5, 6, 29, 8, 1, 9, 10, 11, 203]"
PTB7-Th,ITIC,-5.213181818181817,-3.541944444444445,-5.57675,-3.918163265306122,0.667,CB,25.0,_,25,MoOx,ZnO,7.62,7.62,0.822,66.2,"['O', 'CCCCC(C)CC', 'C=O', 'CCCCC(C)CC', 'Cc1scc2scc(F)c12', 'c1ccsc1', 'Cc1cc2cc3sccc3cc2s1']","['N#CCC#N', 'O=C1CCc2ccccc21', 'C', 'CCCCCC', 'c1ccc(C2(c3ccccc3)c3cc4c(cc3-c3sc5ccsc5c32)C(c2ccccc2)(c2ccccc2)c2c-4sc3ccsc23)cc1']","['O', 'CCCCC(C)CC', 'C=O', 'CCCCC(C)CC', 'Cc1scc2scc(F)c12', 'c1ccsc1', 'Cc1cc2cc3sccc3cc2s1', '.', 'N#CCC#N', 'O=C1CCc2ccccc21', 'C', 'CCCCCC', 'c1ccc(C2(c3ccccc3)c3cc4c(cc3-c3sc5ccsc5c32)C(c2ccccc2)(c2ccccc2)c2c-4sc3ccsc23)cc1']","[0, 0, 0, 0, 2, 3, 4, 3, 33, 6, 8, 1, 9, 10, 11, 12, 14]"
P3HT,DTFBR,-5.057777777777777,-2.989444444444445,-5.54,-3.68,1.0,o-DCB,15.0,_,100,PEDOT:PSS,ZrAcAc,3.68,3.59,0.71,62.0,"['CCCCCC', 'Cc1cccs1', 'Cc1cccs1', 'c1ccsc1']","['CC', 'O=C1CSC(=S)N1', 'CCCCCC', 'C', 'c1ccc2nnnc2c1', 'CCCCCCC1(CCCCCC)c2cc3c(cc2-c2cc4c(cc21)-c1sccc1C4(c1ccccc1)c1ccccc1)C(c1ccccc1)(c1ccccc1)c1ccsc1-3']","['CCCCCC', 'Cc1cccs1', 'Cc1cccs1', 'c1ccsc1', '.', 'CC', 'O=C1CSC(=S)N1', 'CCCCCC', 'C', 'c1ccc2nnnc2c1', 'CCCCCCC1(CCCCCC)c2cc3c(cc2-c2cc4c(cc21)-c1sccc1C4(c1ccccc1)c1ccccc1)C(c1ccccc1)(c1ccccc1)c1ccsc1-3']","[0, 0, 0, 0, 0, 0, 12, 5, 5, 6, 1, 21, 69, 12, 11, 43, 204]"
PBDB-T,4TIC-4F,-5.297714285714285,-3.4170000000000003,-5.6,-4.21,1.0,CB,20.0,_,130,PEDOT:PSS,C60-bissalt,7.99,7.99,0.652,57.0,"['CCCCC(C)CC', 'Cc1cccs1', 'c1ccsc1', 'O=C1c2cscc2C(=O)c2cscc21', 'Cc1cc2cc3sccc3cc2s1']","['N#CCC#N', 'O=C1CCc2cc(F)c(F)cc21', 'C', 'CCCCCC', 'c1ccc(C2(c3ccccc3)c3ccsc3-c3sc4c5c(sc4c32)-c2sccc2C5(c2ccccc2)c2ccccc2)cc1']","['CCCCC(C)CC', 'Cc1cccs1', 'c1ccsc1', 'O=C1c2cscc2C(=O)c2cscc21', 'Cc1cc2cc3sccc3cc2s1', '.', 'N#CCC#N', 'O=C1CCc2cc(F)c(F)cc21', 'C', 'CCCCCC', 'c1ccc(C2(c3ccccc3)c3ccsc3-c3sc4c5c(sc4c32)-c2sccc2C5(c2ccccc2)c2ccccc2)cc1']","[0, 0, 0, 0, 0, 0, 3, 5, 6, 29, 8, 1, 9, 39, 11, 12, 88]"
PBDB-T,6TIC-4F,-5.297714285714285,-3.4170000000000003,-5.45,-4.14,1.0,CB,20.0,_,25,PEDOT:PSS,C60-bissalt,11.14,11.14,0.723,67.0,"['CCCCC(C)CC', 'Cc1cccs1', 'c1ccsc1', 'O=C1c2cscc2C(=O)c2cscc21', 'Cc1cc2cc3sccc3cc2s1']","['N#CCC#N', 'O=C1CCc2cc(F)c(F)cc21', 'C', 'CCCCCC', 'c1ccc(C2(c3ccccc3)c3c(sc4ccsc34)-c3sc4c5c(sc4c32)-c2sc3ccsc3c2C5(c2ccccc2)c2ccccc2)cc1']","['CCCCC(C)CC', 'Cc1cccs1', 'c1ccsc1', 'O=C1c2cscc2C(=O)c2cscc21', 'Cc1cc2cc3sccc3cc2s1', '.', 'N#CCC#N', 'O=C1CCc2cc(F)c(F)cc21', 'C', 'CCCCCC', 'c1ccc(C2(c3ccccc3)c3c(sc4ccsc34)-c3sc4c5c(sc4c32)-c2sc3ccsc3c2C5(c2ccccc2)c2ccccc2)cc1']","[0, 0, 0, 0, 0, 0, 3, 5, 6, 29, 8, 1, 9, 39, 11, 12, 13]"
PBDB-T,ITBTR-C4,-5.297714285714285,-3.4170000000000003,-5.3,-3.71,1.0,CB,20.0,DIO,25,MoOx,ZnO,7.33,7.19,0.9,54.15,"['CCCCC(C)CC', 'Cc1cccs1', 'c1ccsc1', 'O=C1c2cscc2C(=O)c2cscc21', 'Cc1cc2cc3sccc3cc2s1']","['CCCC', 'CCCCCC', 'N#CC(C#N)=c1nc(=O)/c(=C/c2cccc3nsnc23)s1', 'c1ccc(C2(c3ccccc3)c3cc4c(cc3-c3sc5ccsc5c32)C(c2ccccc2)(c2ccccc2)c2c-4sc3ccsc23)cc1']","['CCCCC(C)CC', 'Cc1cccs1', 'c1ccsc1', 'O=C1c2cscc2C(=O)c2cscc21', 'Cc1cc2cc3sccc3cc2s1', '.', 'CCCC', 'CCCCCC', 'N#CC(C#N)=c1nc(=O)/c(=C/c2cccc3nsnc23)s1', 'c1ccc(C2(c3ccccc3)c3cc4c(cc3-c3sc5ccsc5c32)C(c2ccccc2)(c2ccccc2)c2c-4sc3ccsc23)cc1']","[0, 0, 0, 0, 0, 0, 0, 3, 5, 6, 29, 8, 1, 101, 12, 82, 14]"
PBDB-T,ITBTR-C6,-5.297714285714285,-3.4170000000000003,-5.3,-3.71,1.0,CB,20.0,DIO,25,MoOx,ZnO,8.18,8.09,0.89,57.83,"['CCCCC(C)CC', 'Cc1cccs1', 'c1ccsc1', 'O=C1c2cscc2C(=O)c2cscc21', 'Cc1cc2cc3sccc3cc2s1']","['CCCCCC', 'N#CC(C#N)=c1nc(=O)/c(=C/c2cccc3nsnc23)s1', 'c1ccc(C2(c3ccccc3)c3cc4c(cc3-c3sc5ccsc5c32)C(c2ccccc2)(c2ccccc2)c2c-4sc3ccsc23)cc1']","['CCCCC(C)CC', 'Cc1cccs1', 'c1ccsc1', 'O=C1c2cscc2C(=O)c2cscc21', 'Cc1cc2cc3sccc3cc2s1', '.', 'CCCCCC', 'N#CC(C#N)=c1nc(=O)/c(=C/c2cccc3nsnc23)s1', 'c1ccc(C2(c3ccccc3)c3cc4c(cc3-c3sc5ccsc5c32)C(c2ccccc2)(c2ccccc2)c2c-4sc3ccsc23)cc1']","[0, 0, 0, 0, 0, 0, 0, 0, 3, 5, 6, 29, 8, 1, 12, 82, 14]"
PBDB-T,ITBTR-C8,-5.297714285714285,-3.4170000000000003,-5.28,-3.7,1.0,CB,20.0,DIO,25,MoOx,ZnO,7.85,7.76,0.9,58.47,"['CCCCC(C)CC', 'Cc1cccs1', 'c1ccsc1', 'O=C1c2cscc2C(=O)c2cscc21', 'Cc1cc2cc3sccc3cc2s1']","['CCCCCCCC', 'CCCCCC', 'N#CC(C#N)=c1nc(=O)/c(=C/c2cccc3nsnc23)s1', 'c1ccc(C2(c3ccccc3)c3cc4c(cc3-c3sc5ccsc5c32)C(c2ccccc2)(c2ccccc2)c2c-4sc3ccsc23)cc1']","['CCCCC(C)CC', 'Cc1cccs1', 'c1ccsc1', 'O=C1c2cscc2C(=O)c2cscc21', 'Cc1cc2cc3sccc3cc2s1', '.', 'CCCCCCCC', 'CCCCCC', 'N#CC(C#N)=c1nc(=O)/c(=C/c2cccc3nsnc23)s1', 'c1ccc(C2(c3ccccc3)c3cc4c(cc3-c3sc5ccsc5c32)C(c2ccccc2)(c2ccccc2)c2c-4sc3ccsc23)cc1']","[0, 0, 0, 0, 0, 0, 0, 3, 5, 6, 29, 8, 1, 20, 12, 82, 14]"
PBDB-T2Cl,IDIC-4H,-5.510000000000001,-3.57,-5.7,-3.87,1.0,CB,10.0,DIO,25,MoOx,ZnO,4.57,4.58,0.98,45.3,"['CCCCC(C)CC', 'Cc1cccs1', 'Clc1ccsc1', 'O=C1c2cscc2C(=O)c2cscc21', 'c1ccsc1', 'Cc1cc2cc3sccc3cc2s1']","['N#CCC#N', 'O=C1CCc2ccccc21', 'C', 'CCCCCC', 'c1ccc(C2(c3ccccc3)c3cc4c(cc3-c3sccc32)C(c2ccccc2)(c2ccccc2)c2ccsc2-4)cc1']","['CCCCC(C)CC', 'Cc1cccs1', 'Clc1ccsc1', 'O=C1c2cscc2C(=O)c2cscc21', 'c1ccsc1', 'Cc1cc2cc3sccc3cc2s1', '.', 'N#CCC#N', 'O=C1CCc2ccccc21', 'C', 'CCCCCC', 'c1ccc(C2(c3ccccc3)c3cc4c(cc3-c3sccc32)C(c2ccccc2)(c2ccccc2)c2ccsc2-4)cc1']","[0, 0, 0, 0, 0, 3, 5, 160, 29, 6, 8, 1, 9, 10, 11, 12, 36]"
PBDB-T2Cl,IDIC-4F,-5.510000000000001,-3.57,-5.73,-3.93,1.0,CB,10.0,DIO,25,MoOx,ZnO,7.1,7.08,0.88,61.91,"['CCCCC(C)CC', 'Cc1cccs1', 'Clc1ccsc1', 'O=C1c2cscc2C(=O)c2cscc21', 'c1ccsc1', 'Cc1cc2cc3sccc3cc2s1']","['N#CCC#N', 'O=C1CCc2cc(F)c(F)cc21', 'C', 'CCCCCC', 'c1ccc(C2(c3ccccc3)c3cc4c(cc3-c3sccc32)C(c2ccccc2)(c2ccccc2)c2ccsc2-4)cc1']","['CCCCC(C)CC', 'Cc1cccs1', 'Clc1ccsc1', 'O=C1c2cscc2C(=O)c2cscc21', 'c1ccsc1', 'Cc1cc2cc3sccc3cc2s1', '.', 'N#CCC#N', 'O=C1CCc2cc(F)c(F)cc21', 'C', 'CCCCCC', 'c1ccc(C2(c3ccccc3)c3cc4c(cc3-c3sccc32)C(c2ccccc2)(c2ccccc2)c2ccsc2-4)cc1']","[0, 0, 0, 0, 0, 3, 5, 160, 29, 6, 8, 1, 9, 39, 11, 12, 36]"
PBDB-T2Cl,IDIC-4Cl,-5.510000000000001,-3.57,-5.78,-4.02,1.0,CB,10.0,DIO,25,MoOx,ZnO,9.24,9.24,0.83,68.69,"['CCCCC(C)CC', 'Cc1cccs1', 'Clc1ccsc1', 'O=C1c2cscc2C(=O)c2cscc21', 'c1ccsc1', 'Cc1cc2cc3sccc3cc2s1']","['N#CCC#N', 'O=C1CCc2cc(Cl)c(Cl)cc21', 'C', 'CCCCCC', 'c1ccc(C2(c3ccccc3)c3cc4c(cc3-c3sccc32)C(c2ccccc2)(c2ccccc2)c2ccsc2-4)cc1']","['CCCCC(C)CC', 'Cc1cccs1', 'Clc1ccsc1', 'O=C1c2cscc2C(=O)c2cscc21', 'c1ccsc1', 'Cc1cc2cc3sccc3cc2s1', '.', 'N#CCC#N', 'O=C1CCc2cc(Cl)c(Cl)cc21', 'C', 'CCCCCC', 'c1ccc(C2(c3ccccc3)c3cc4c(cc3-c3sccc32)C(c2ccccc2)(c2ccccc2)c2ccsc2-4)cc1']","[0, 0, 0, 0, 0, 3, 5, 160, 29, 6, 8, 1, 9, 38, 11, 12, 36]"
PBDB-T,IT-M,-5.297714285714285,-3.4170000000000003,-5.513571428571429,-3.808,1.0,CB,10.0,_,100,PEDOT:PSS,PFN-Br,11.74,11.72,0.95,72.0,"['CCCCC(C)CC', 'Cc1cccs1', 'c1ccsc1', 'O=C1c2cscc2C(=O)c2cscc21', 'Cc1cc2cc3sccc3cc2s1']","['N#CCC#N', 'Cc1ccc2c(c1)CCC2=O', 'C', 'CCCCCC', 'c1ccc(C2(c3ccccc3)c3cc4c(cc3-c3sc5ccsc5c32)C(c2ccccc2)(c2ccccc2)c2c-4sc3ccsc23)cc1']","['CCCCC(C)CC', 'Cc1cccs1', 'c1ccsc1', 'O=C1c2cscc2C(=O)c2cscc21', 'Cc1cc2cc3sccc3cc2s1', '.', 'N#CCC#N', 'Cc1ccc2c(c1)CCC2=O', 'C', 'CCCCCC', 'c1ccc(C2(c3ccccc3)c3cc4c(cc3-c3sc5ccsc5c32)C(c2ccccc2)(c2ccccc2)c2c-4sc3ccsc23)cc1']","[0, 0, 0, 0, 0, 0, 3, 5, 6, 29, 8, 1, 9, 15, 11, 12, 14]"
PBDB-T,spiro-IDT-O-IC,-5.297714285714285,-3.4170000000000003,-5.68,-3.79,0.556,o-DCB,11.2,_,25,MoOx,ZnO,4.74,4.71,0.83,55.0,"['CCCCC(C)CC', 'Cc1cccs1', 'c1ccsc1', 'O=C1c2cscc2C(=O)c2cscc21', 'Cc1cc2cc3sccc3cc2s1']","['CCCCCC', 'O', 'N#CCC#N', 'O=C1CCc2ccccc21', 'C', 'c1ccc2c(c1)-c1ccccc1C21c2cc3c(cc2-c2sccc21)C1(c2ccccc2-c2ccccc21)c1ccsc1-3']","['CCCCC(C)CC', 'Cc1cccs1', 'c1ccsc1', 'O=C1c2cscc2C(=O)c2cscc21', 'Cc1cc2cc3sccc3cc2s1', '.', 'CCCCCC', 'O', 'N#CCC#N', 'O=C1CCc2ccccc21', 'C', 'c1ccc2c(c1)-c1ccccc1C21c2cc3c(cc2-c2sccc21)C1(c2ccccc2-c2ccccc21)c1ccsc1-3']","[0, 0, 0, 0, 0, 3, 5, 6, 29, 8, 1, 12, 2, 9, 10, 11, 209]"
PBDB-T,ICBF-O,-5.297714285714285,-3.4170000000000003,-5.7,-3.75,1.0,CB,20.0,_,25,PEDOT:PSS,PDINO,3.11,3.08,1.06,42.6,"['CCCCC(C)CC', 'Cc1cccs1', 'c1ccsc1', 'O=C1c2cscc2C(=O)c2cscc21', 'Cc1cc2cc3sccc3cc2s1']","['N#CCC#N', 'O=C1CCc2ccccc21', 'C', 'CCCCCCCC', 'c1ccsc1', 'CCCCCCCCC1(CCCCCCCC)c2ccccc2-c2cc3c(cc21)-c1ccccc1C3(CCCCCCCC)CCCCCCCC']","['CCCCC(C)CC', 'Cc1cccs1', 'c1ccsc1', 'O=C1c2cscc2C(=O)c2cscc21', 'Cc1cc2cc3sccc3cc2s1', '.', 'N#CCC#N', 'O=C1CCc2ccccc21', 'C', 'CCCCCCCC', 'c1ccsc1', 'CCCCCCCCC1(CCCCCCCC)c2ccccc2-c2cc3c(cc21)-c1ccccc1C3(CCCCCCCC)CCCCCCCC']","[0, 0, 0, 0, 0, 3, 5, 6, 29, 8, 1, 9, 10, 11, 20, 6, 131]"
PBDB-T,ICBF,-5.297714285714285,-3.4170000000000003,-5.64,-3.8,1.0,CB,20.0,_,25,PEDOT:PSS,PDINO,6.07,6.13,0.99,60.1,"['CCCCC(C)CC', 'Cc1cccs1', 'c1ccsc1', 'O=C1c2cscc2C(=O)c2cscc21', 'Cc1cc2cc3sccc3cc2s1']","['N#CCC#N', 'O=C1CCc2ccccc21', 'C', 'c1ccsc1', 'CCCCCCCCC1(CCCCCCCC)c2ccccc2-c2cc3c(cc21)-c1ccccc1C3(CCCCCCCC)CCCCCCCC']","['CCCCC(C)CC', 'Cc1cccs1', 'c1ccsc1', 'O=C1c2cscc2C(=O)c2cscc21', 'Cc1cc2cc3sccc3cc2s1', '.', 'N#CCC#N', 'O=C1CCc2ccccc21', 'C', 'c1ccsc1', 'CCCCCCCCC1(CCCCCCCC)c2ccccc2-c2cc3c(cc21)-c1ccccc1C3(CCCCCCCC)CCCCCCCC']","[0, 0, 0, 0, 0, 0, 3, 5, 6, 29, 8, 1, 9, 10, 11, 6, 131]"
PBDB-T,FICBF-O,-5.297714285714285,-3.4170000000000003,-5.72,-3.85,1.0,CB,20.0,_,25,PEDOT:PSS,PDINO,5.54,5.54,0.96,54.5,"['CCCCC(C)CC', 'Cc1cccs1', 'c1ccsc1', 'O=C1c2cscc2C(=O)c2cscc21', 'Cc1cc2cc3sccc3cc2s1']","['N#CCC#N', 'O=C1CCc2cc(F)c(F)cc21', 'C', 'CCCCCCCC', 'c1ccsc1', 'CCCCCCCCC1(CCCCCCCC)c2ccccc2-c2cc3c(cc21)-c1ccccc1C3(CCCCCCCC)CCCCCCCC']","['CCCCC(C)CC', 'Cc1cccs1', 'c1ccsc1', 'O=C1c2cscc2C(=O)c2cscc21', 'Cc1cc2cc3sccc3cc2s1', '.', 'N#CCC#N', 'O=C1CCc2cc(F)c(F)cc21', 'C', 'CCCCCCCC', 'c1ccsc1', 'CCCCCCCCC1(CCCCCCCC)c2ccccc2-c2cc3c(cc21)-c1ccccc1C3(CCCCCCCC)CCCCCCCC']","[0, 0, 0, 0, 0, 3, 5, 6, 29, 8, 1, 9, 39, 11, 20, 6, 131]"
PBDB-T,FICBF,-5.297714285714285,-3.4170000000000003,-5.66,-3.88,1.0,CB,20.0,_,80,PEDOT:PSS,PDINO,7.41,7.41,0.87,67.0,"['CCCCC(C)CC', 'Cc1cccs1', 'c1ccsc1', 'O=C1c2cscc2C(=O)c2cscc21', 'Cc1cc2cc3sccc3cc2s1']","['N#CCC#N', 'O=C1CCc2cc(F)c(F)cc21', 'C', 'c1ccsc1', 'CCCCCCCCC1(CCCCCCCC)c2ccccc2-c2cc3c(cc21)-c1ccccc1C3(CCCCCCCC)CCCCCCCC']","['CCCCC(C)CC', 'Cc1cccs1', 'c1ccsc1', 'O=C1c2cscc2C(=O)c2cscc21', 'Cc1cc2cc3sccc3cc2s1', '.', 'N#CCC#N', 'O=C1CCc2cc(F)c(F)cc21', 'C', 'c1ccsc1', 'CCCCCCCCC1(CCCCCCCC)c2ccccc2-c2cc3c(cc21)-c1ccccc1C3(CCCCCCCC)CCCCCCCC']","[0, 0, 0, 0, 0, 0, 3, 5, 6, 29, 8, 1, 9, 39, 11, 6, 131]"
PBT1-EH,IDTCN,-5.43,-3.43,-5.890000000000001,-3.93,1.0,CF,7.0,_,100,PEDOT:PSS,ZrAcAc,8.69,8.54,0.93,70.2,"['CCCCCCC(C)CCCC', 'CCCCC(C)CC', 'S', 'Cc1cccs1', 'c1ccsc1', 'O=C1c2cscc2C(=O)c2cscc21', 'Cc1cc2cc3sccc3cc2s1']","['N#CCC#N', 'O=C1CCc2cscc21', 'C', 'CCCCCC', 'c1ccc(C2(c3ccccc3)c3cc4c(cc3-c3sccc32)C(c2ccccc2)(c2ccccc2)c2ccsc2-4)cc1']","['CCCCCCC(C)CCCC', 'CCCCC(C)CC', 'S', 'Cc1cccs1', 'c1ccsc1', 'O=C1c2cscc2C(=O)c2cscc21', 'Cc1cc2cc3sccc3cc2s1', '.', 'N#CCC#N', 'O=C1CCc2cscc21', 'C', 'CCCCCC', 'c1ccc(C2(c3ccccc3)c3cc4c(cc3-c3sccc32)C(c2ccccc2)(c2ccccc2)c2ccsc2-4)cc1']","[0, 0, 0, 0, 32, 3, 24, 5, 6, 29, 8, 1, 9, 40, 11, 12, 36]"
PBDB-T,IDT-T,-5.297714285714285,-3.4170000000000003,-5.49,-3.985,1.0,CB,15.0,_,25,MoOx,ZnO,6.36,6.36,0.952,59.62,"['CCCCC(C)CC', 'Cc1cccs1', 'c1ccsc1', 'O=C1c2cscc2C(=O)c2cscc21', 'Cc1cc2cc3sccc3cc2s1']","['N#CCC#N', 'O=C1CCc2ccccc21', 'C', 'CCCCCC', 'c1ccsc1', 'c1ccc(C2(c3ccccc3)c3cc4c(cc3-c3sccc32)C(c2ccccc2)(c2ccccc2)c2ccsc2-4)cc1']","['CCCCC(C)CC', 'Cc1cccs1', 'c1ccsc1', 'O=C1c2cscc2C(=O)c2cscc21', 'Cc1cc2cc3sccc3cc2s1', '.', 'N#CCC#N', 'O=C1CCc2ccccc21', 'C', 'CCCCCC', 'c1ccsc1', 'c1ccc(C2(c3ccccc3)c3cc4c(cc3-c3sccc32)C(c2ccccc2)(c2ccccc2)c2ccsc2-4)cc1']","[0, 0, 0, 0, 0, 3, 5, 6, 29, 8, 1, 9, 10, 11, 12, 6, 36]"
PBDB-T,TTIC,-5.297714285714285,-3.4170000000000003,-5.54,-4.109999999999999,0.667,o-DCB,10.0,DIO,125,MoOx,ZnO,10.61,10.63,0.77,62.0,"['CCCCC(C)CC', 'Cc1cccs1', 'c1ccsc1', 'O=C1c2cscc2C(=O)c2cscc21', 'Cc1cc2cc3sccc3cc2s1']","['N#CCC#N', 'O=C1CCc2ccccc21', 'C', 'CCCCCC', 'c1ccc(C2(c3ccccc3)c3ccsc3-c3sc4c5c(sc4c32)-c2sccc2C5(c2ccccc2)c2ccccc2)cc1']","['CCCCC(C)CC', 'Cc1cccs1', 'c1ccsc1', 'O=C1c2cscc2C(=O)c2cscc21', 'Cc1cc2cc3sccc3cc2s1', '.', 'N#CCC#N', 'O=C1CCc2ccccc21', 'C', 'CCCCCC', 'c1ccc(C2(c3ccccc3)c3ccsc3-c3sc4c5c(sc4c32)-c2sccc2C5(c2ccccc2)c2ccccc2)cc1']","[0, 0, 0, 0, 0, 0, 3, 5, 6, 29, 8, 1, 9, 10, 11, 12, 88]"
PBDB-T,TTIC-M,-5.297714285714285,-3.4170000000000003,-5.49,-4.03,0.667,o-DCB,10.0,DIO,175,MoOx,ZnO,11.48,11.49,0.8,70.0,"['CCCCC(C)CC', 'Cc1cccs1', 'c1ccsc1', 'O=C1c2cscc2C(=O)c2cscc21', 'Cc1cc2cc3sccc3cc2s1']","['N#CCC#N', 'Cc1ccc2c(c1)CCC2=O', 'C', 'CCCCCC', 'c1ccc(C2(c3ccccc3)c3ccsc3-c3sc4c5c(sc4c32)-c2sccc2C5(c2ccccc2)c2ccccc2)cc1']","['CCCCC(C)CC', 'Cc1cccs1', 'c1ccsc1', 'O=C1c2cscc2C(=O)c2cscc21', 'Cc1cc2cc3sccc3cc2s1', '.', 'N#CCC#N', 'Cc1ccc2c(c1)CCC2=O', 'C', 'CCCCCC', 'c1ccc(C2(c3ccccc3)c3ccsc3-c3sc4c5c(sc4c32)-c2sccc2C5(c2ccccc2)c2ccccc2)cc1']","[0, 0, 0, 0, 0, 0, 3, 5, 6, 29, 8, 1, 9, 15, 11, 12, 88]"
J52,ITIC,-5.218571428571429,-3.341428571428572,-5.57675,-3.918163265306122,0.667,CF,18.0,_,25,PEDOT:PSS,PDINO,3.78,3.77,0.803,43.2,"['CCCCCCCCC(C)CCCCCC', 'CCCCC(C)CC', 'CCCCC(C)CC', 'c1ccsc1', 'Cc1cccs1', 'Fc1cc2nnnc2cc1F', 'Cc1cc2cc3sccc3cc2s1']","['N#CCC#N', 'O=C1CCc2ccccc21', 'C', 'CCCCCC', 'c1ccc(C2(c3ccccc3)c3cc4c(cc3-c3sc5ccsc5c32)C(c2ccccc2)(c2ccccc2)c2c-4sc3ccsc23)cc1']","['CCCCCCCCC(C)CCCCCC', 'CCCCC(C)CC', 'CCCCC(C)CC', 'c1ccsc1', 'Cc1cccs1', 'Fc1cc2nnnc2cc1F', 'Cc1cc2cc3sccc3cc2s1', '.', 'N#CCC#N', 'O=C1CCc2ccccc21', 'C', 'CCCCCC', 'c1ccc(C2(c3ccccc3)c3cc4c(cc3-c3sc5ccsc5c32)C(c2ccccc2)(c2ccccc2)c2c-4sc3ccsc23)cc1']","[0, 0, 0, 0, 16, 3, 3, 6, 5, 18, 8, 1, 9, 10, 11, 12, 14]"