Donor,Acceptor,HOMO_D_eV,LUMO_D_eV,HOMO_A_eV,LUMO_A_eV,D_A_ratio_m_m,solvent,solvent_additive,annealing_temperature,hole_contact_layer,electron_contact_layer,PCE_percent,calc_PCE_percent,Voc_V,FF_percent,Donor_BRICS,Acceptor_BRICS,DA_pair_BRICS,DA_tokenized_BRICS
POPB,IT-4F,-5.38,-3.57,-5.66875,-4.060416666666667,0.667,CB,DIO,25.0,MoOx,ZnO,6.2,6.19,0.72,51.2,"[<rdkit.Chem.rdchem.Mol object at 0x7f5838e2e500>, <rdkit.Chem.rdchem.Mol object at 0x7f5838e2c350>, <rdkit.Chem.rdchem.Mol object at 0x7f5838e2f4c0>, <rdkit.Chem.rdchem.Mol object at 0x7f5838e342e0>, <rdkit.Chem.rdchem.Mol object at 0x7f5838e34190>, <rdkit.Chem.rdchem.Mol object at 0x7f5838e340b0>, <rdkit.Chem.rdchem.Mol object at 0x7f5838e34c10>, <rdkit.Chem.rdchem.Mol object at 0x7f5838e34eb0>]","[<rdkit.Chem.rdchem.Mol object at 0x7f5838e2f6f0>, <rdkit.Chem.rdchem.Mol object at 0x7f5838e34a50>, <rdkit.Chem.rdchem.Mol object at 0x7f5838e2de70>, <rdkit.Chem.rdchem.Mol object at 0x7f5838e349e0>, <rdkit.Chem.rdchem.Mol object at 0x7f5838e34970>]","[<rdkit.Chem.rdchem.Mol object at 0x7f5838e2e500>, <rdkit.Chem.rdchem.Mol object at 0x7f5838e2c350>, <rdkit.Chem.rdchem.Mol object at 0x7f5838e2f4c0>, <rdkit.Chem.rdchem.Mol object at 0x7f5838e342e0>, <rdkit.Chem.rdchem.Mol object at 0x7f5838e34190>, <rdkit.Chem.rdchem.Mol object at 0x7f5838e340b0>, <rdkit.Chem.rdchem.Mol object at 0x7f5838e34c10>, <rdkit.Chem.rdchem.Mol object at 0x7f5838e34eb0>, '.', <rdkit.Chem.rdchem.Mol object at 0x7f5838e2f6f0>, <rdkit.Chem.rdchem.Mol object at 0x7f5838e34a50>, <rdkit.Chem.rdchem.Mol object at 0x7f5838e2de70>, <rdkit.Chem.rdchem.Mol object at 0x7f5838e349e0>, <rdkit.Chem.rdchem.Mol object at 0x7f5838e34970>]","[0, 0, 0, 3896, 3897, 3898, 3899, 3900, 3901, 3902, 3903, 1, 3904, 3905, 3906, 3907, 3908]"
PFOPB,IT-4F,-5.5,-3.64,-5.66875,-4.060416666666667,0.667,CB,DIO,25.0,MoOx,ZnO,11.7,11.71,0.89,64.5,"[<rdkit.Chem.rdchem.Mol object at 0x7f5838e2e030>, <rdkit.Chem.rdchem.Mol object at 0x7f5838e350e0>, <rdkit.Chem.rdchem.Mol object at 0x7f5838e345f0>, <rdkit.Chem.rdchem.Mol object at 0x7f5838e34d60>, <rdkit.Chem.rdchem.Mol object at 0x7f5838e347b0>, <rdkit.Chem.rdchem.Mol object at 0x7f5838e34b30>, <rdkit.Chem.rdchem.Mol object at 0x7f5838e34f90>, <rdkit.Chem.rdchem.Mol object at 0x7f5838e353f0>]","[<rdkit.Chem.rdchem.Mol object at 0x7f5838e35540>, <rdkit.Chem.rdchem.Mol object at 0x7f5838e346d0>, <rdkit.Chem.rdchem.Mol object at 0x7f5838e2c660>, <rdkit.Chem.rdchem.Mol object at 0x7f5838e34200>, <rdkit.Chem.rdchem.Mol object at 0x7f5838e344a0>]","[<rdkit.Chem.rdchem.Mol object at 0x7f5838e2e030>, <rdkit.Chem.rdchem.Mol object at 0x7f5838e350e0>, <rdkit.Chem.rdchem.Mol object at 0x7f5838e345f0>, <rdkit.Chem.rdchem.Mol object at 0x7f5838e34d60>, <rdkit.Chem.rdchem.Mol object at 0x7f5838e347b0>, <rdkit.Chem.rdchem.Mol object at 0x7f5838e34b30>, <rdkit.Chem.rdchem.Mol object at 0x7f5838e34f90>, <rdkit.Chem.rdchem.Mol object at 0x7f5838e353f0>, '.', <rdkit.Chem.rdchem.Mol object at 0x7f5838e35540>, <rdkit.Chem.rdchem.Mol object at 0x7f5838e346d0>, <rdkit.Chem.rdchem.Mol object at 0x7f5838e2c660>, <rdkit.Chem.rdchem.Mol object at 0x7f5838e34200>, <rdkit.Chem.rdchem.Mol object at 0x7f5838e344a0>]","[0, 0, 0, 3909, 3910, 3911, 3912, 3913, 3914, 3915, 3916, 1, 3917, 3918, 3919, 3920, 3921]"
P3HT,BIBT-NI,-5.057777777777777,-2.989444444444445,-5.62,-3.65,0.833,o-DCB,_,110.0,MoOx,ZnO,2.1,2.09,0.77,44.2,"[<rdkit.Chem.rdchem.Mol object at 0x7f5838e2e180>, <rdkit.Chem.rdchem.Mol object at 0x7f5838e2eb90>, <rdkit.Chem.rdchem.Mol object at 0x7f5838e359a0>, <rdkit.Chem.rdchem.Mol object at 0x7f5838e352a0>]","[<rdkit.Chem.rdchem.Mol object at 0x7f5838e2ee30>, <rdkit.Chem.rdchem.Mol object at 0x7f5838e34e40>, <rdkit.Chem.rdchem.Mol object at 0x7f5838e34740>, <rdkit.Chem.rdchem.Mol object at 0x7f5838e343c0>]","[<rdkit.Chem.rdchem.Mol object at 0x7f5838e2e180>, <rdkit.Chem.rdchem.Mol object at 0x7f5838e2eb90>, <rdkit.Chem.rdchem.Mol object at 0x7f5838e359a0>, <rdkit.Chem.rdchem.Mol object at 0x7f5838e352a0>, '.', <rdkit.Chem.rdchem.Mol object at 0x7f5838e2ee30>, <rdkit.Chem.rdchem.Mol object at 0x7f5838e34e40>, <rdkit.Chem.rdchem.Mol object at 0x7f5838e34740>, <rdkit.Chem.rdchem.Mol object at 0x7f5838e343c0>]","[0, 0, 0, 0, 0, 0, 0, 0, 3922, 3923, 3924, 3925, 1, 3926, 3927, 3928, 3929]"
PBDT-F-2TC,IT-4F,-5.55,-3.58,-5.66875,-4.060416666666667,1.0,CB,_,110.0,PEDOT:PSS,PFN-Br,10.75,10.75,0.91,62.51,"[<rdkit.Chem.rdchem.Mol object at 0x7f5838e34430>, <rdkit.Chem.rdchem.Mol object at 0x7f5838e34c80>, <rdkit.Chem.rdchem.Mol object at 0x7f5838e34890>, <rdkit.Chem.rdchem.Mol object at 0x7f5838e34ac0>, <rdkit.Chem.rdchem.Mol object at 0x7f5838e35150>, <rdkit.Chem.rdchem.Mol object at 0x7f5838e358c0>, <rdkit.Chem.rdchem.Mol object at 0x7f5838e34f20>, <rdkit.Chem.rdchem.Mol object at 0x7f5838e35c40>]","[<rdkit.Chem.rdchem.Mol object at 0x7f5838e355b0>, <rdkit.Chem.rdchem.Mol object at 0x7f5838e357e0>, <rdkit.Chem.rdchem.Mol object at 0x7f5838e35850>, <rdkit.Chem.rdchem.Mol object at 0x7f5838e35af0>, <rdkit.Chem.rdchem.Mol object at 0x7f5838e35e70>]","[<rdkit.Chem.rdchem.Mol object at 0x7f5838e34430>, <rdkit.Chem.rdchem.Mol object at 0x7f5838e34c80>, <rdkit.Chem.rdchem.Mol object at 0x7f5838e34890>, <rdkit.Chem.rdchem.Mol object at 0x7f5838e34ac0>, <rdkit.Chem.rdchem.Mol object at 0x7f5838e35150>, <rdkit.Chem.rdchem.Mol object at 0x7f5838e358c0>, <rdkit.Chem.rdchem.Mol object at 0x7f5838e34f20>, <rdkit.Chem.rdchem.Mol object at 0x7f5838e35c40>, '.', <rdkit.Chem.rdchem.Mol object at 0x7f5838e355b0>, <rdkit.Chem.rdchem.Mol object at 0x7f5838e357e0>, <rdkit.Chem.rdchem.Mol object at 0x7f5838e35850>, <rdkit.Chem.rdchem.Mol object at 0x7f5838e35af0>, <rdkit.Chem.rdchem.Mol object at 0x7f5838e35e70>]","[0, 0, 0, 3930, 3931, 3932, 3933, 3934, 3935, 3936, 3937, 1, 3938, 3939, 3940, 3941, 3942]"
PBDT-SF-2TC,IT-4F,-5.57,-3.59,-5.66875,-4.060416666666667,1.0,CB,_,110.0,PEDOT:PSS,PFN-Br,11.07,11.08,0.93,57.45,"[<rdkit.Chem.rdchem.Mol object at 0x7f5838e35d90>, <rdkit.Chem.rdchem.Mol object at 0x7f5838e35fc0>, <rdkit.Chem.rdchem.Mol object at 0x7f5838e35e00>, <rdkit.Chem.rdchem.Mol object at 0x7f5838e35a80>, <rdkit.Chem.rdchem.Mol object at 0x7f5838e35690>, <rdkit.Chem.rdchem.Mol object at 0x7f5838e354d0>, <rdkit.Chem.rdchem.Mol object at 0x7f5838e34660>, <rdkit.Chem.rdchem.Mol object at 0x7f5838e35380>, <rdkit.Chem.rdchem.Mol object at 0x7f5838e36420>]","[<rdkit.Chem.rdchem.Mol object at 0x7f5838e360a0>, <rdkit.Chem.rdchem.Mol object at 0x7f5838e35000>, <rdkit.Chem.rdchem.Mol object at 0x7f5838e34900>, <rdkit.Chem.rdchem.Mol object at 0x7f5838e35620>, <rdkit.Chem.rdchem.Mol object at 0x7f5838e36030>]","[<rdkit.Chem.rdchem.Mol object at 0x7f5838e35d90>, <rdkit.Chem.rdchem.Mol object at 0x7f5838e35fc0>, <rdkit.Chem.rdchem.Mol object at 0x7f5838e35e00>, <rdkit.Chem.rdchem.Mol object at 0x7f5838e35a80>, <rdkit.Chem.rdchem.Mol object at 0x7f5838e35690>, <rdkit.Chem.rdchem.Mol object at 0x7f5838e354d0>, <rdkit.Chem.rdchem.Mol object at 0x7f5838e34660>, <rdkit.Chem.rdchem.Mol object at 0x7f5838e35380>, <rdkit.Chem.rdchem.Mol object at 0x7f5838e36420>, '.', <rdkit.Chem.rdchem.Mol object at 0x7f5838e360a0>, <rdkit.Chem.rdchem.Mol object at 0x7f5838e35000>, <rdkit.Chem.rdchem.Mol object at 0x7f5838e34900>, <rdkit.Chem.rdchem.Mol object at 0x7f5838e35620>, <rdkit.Chem.rdchem.Mol object at 0x7f5838e36030>]","[0, 0, 3943, 3944, 3945, 3946, 3947, 3948, 3949, 3950, 3951, 1, 3952, 3953, 3954, 3955, 3956]"
PDBT-F,IT-M,-5.39,-3.57,-5.513571428571429,-3.808,1.0,CF,DIO,100.0,PEDOT:PSS,PFN-Br,10.52,10.52,0.97,63.71,"[<rdkit.Chem.rdchem.Mol object at 0x7f5838e36500>, <rdkit.Chem.rdchem.Mol object at 0x7f5838e35310>, <rdkit.Chem.rdchem.Mol object at 0x7f5838e36110>, <rdkit.Chem.rdchem.Mol object at 0x7f5838e35070>, <rdkit.Chem.rdchem.Mol object at 0x7f5838e36880>, <rdkit.Chem.rdchem.Mol object at 0x7f5838e36ff0>]","[<rdkit.Chem.rdchem.Mol object at 0x7f5838e36e30>, <rdkit.Chem.rdchem.Mol object at 0x7f5838e34dd0>, <rdkit.Chem.rdchem.Mol object at 0x7f5838e36730>, <rdkit.Chem.rdchem.Mol object at 0x7f5838e35930>, <rdkit.Chem.rdchem.Mol object at 0x7f5838e35b60>]","[<rdkit.Chem.rdchem.Mol object at 0x7f5838e36500>, <rdkit.Chem.rdchem.Mol object at 0x7f5838e35310>, <rdkit.Chem.rdchem.Mol object at 0x7f5838e36110>, <rdkit.Chem.rdchem.Mol object at 0x7f5838e35070>, <rdkit.Chem.rdchem.Mol object at 0x7f5838e36880>, <rdkit.Chem.rdchem.Mol object at 0x7f5838e36ff0>, '.', <rdkit.Chem.rdchem.Mol object at 0x7f5838e36e30>, <rdkit.Chem.rdchem.Mol object at 0x7f5838e34dd0>, <rdkit.Chem.rdchem.Mol object at 0x7f5838e36730>, <rdkit.Chem.rdchem.Mol object at 0x7f5838e35930>, <rdkit.Chem.rdchem.Mol object at 0x7f5838e35b60>]","[0, 0, 0, 0, 0, 3957, 3958, 3959, 3960, 3961, 3962, 1, 3963, 3964, 3965, 3966, 3967]"
PDBT-F,IDIC,-5.39,-3.57,-5.706,-4.002666666666667,1.0,CF,DIO,100.0,PEDOT:PSS,PFN-Br,11.02,10.98,0.87,71.5,"[<rdkit.Chem.rdchem.Mol object at 0x7f5838e35700>, <rdkit.Chem.rdchem.Mol object at 0x7f5838e369d0>, <rdkit.Chem.rdchem.Mol object at 0x7f5838e36c70>, <rdkit.Chem.rdchem.Mol object at 0x7f5838e351c0>, <rdkit.Chem.rdchem.Mol object at 0x7f5838e36b90>, <rdkit.Chem.rdchem.Mol object at 0x7f5838e375a0>]","[<rdkit.Chem.rdchem.Mol object at 0x7f5838e371b0>, <rdkit.Chem.rdchem.Mol object at 0x7f5838e36960>, <rdkit.Chem.rdchem.Mol object at 0x7f5838e365e0>, <rdkit.Chem.rdchem.Mol object at 0x7f5838e36f10>]","[<rdkit.Chem.rdchem.Mol object at 0x7f5838e35700>, <rdkit.Chem.rdchem.Mol object at 0x7f5838e369d0>, <rdkit.Chem.rdchem.Mol object at 0x7f5838e36c70>, <rdkit.Chem.rdchem.Mol object at 0x7f5838e351c0>, <rdkit.Chem.rdchem.Mol object at 0x7f5838e36b90>, <rdkit.Chem.rdchem.Mol object at 0x7f5838e375a0>, '.', <rdkit.Chem.rdchem.Mol object at 0x7f5838e371b0>, <rdkit.Chem.rdchem.Mol object at 0x7f5838e36960>, <rdkit.Chem.rdchem.Mol object at 0x7f5838e365e0>, <rdkit.Chem.rdchem.Mol object at 0x7f5838e36f10>]","[0, 0, 0, 0, 0, 0, 3968, 3969, 3970, 3971, 3972, 3973, 1, 3974, 3975, 3976, 3977]"
PBDS-T,ITIC-F,-5.349999999999999,-3.67,-5.619999999999999,-4.02,1.0,CB,DIO,25.0,MoOx,ZnO,11.19,11.19,0.9,66.7,"[<rdkit.Chem.rdchem.Mol object at 0x7f5838e374c0>, <rdkit.Chem.rdchem.Mol object at 0x7f5838e37840>, <rdkit.Chem.rdchem.Mol object at 0x7f5838e36260>, <rdkit.Chem.rdchem.Mol object at 0x7f5838e37060>, <rdkit.Chem.rdchem.Mol object at 0x7f5838e35460>, <rdkit.Chem.rdchem.Mol object at 0x7f5838e361f0>]","[<rdkit.Chem.rdchem.Mol object at 0x7f5838e34040>, <rdkit.Chem.rdchem.Mol object at 0x7f5838e36490>, <rdkit.Chem.rdchem.Mol object at 0x7f5838e36180>, <rdkit.Chem.rdchem.Mol object at 0x7f5838e37220>, <rdkit.Chem.rdchem.Mol object at 0x7f5838e37920>]","[<rdkit.Chem.rdchem.Mol object at 0x7f5838e374c0>, <rdkit.Chem.rdchem.Mol object at 0x7f5838e37840>, <rdkit.Chem.rdchem.Mol object at 0x7f5838e36260>, <rdkit.Chem.rdchem.Mol object at 0x7f5838e37060>, <rdkit.Chem.rdchem.Mol object at 0x7f5838e35460>, <rdkit.Chem.rdchem.Mol object at 0x7f5838e361f0>, '.', <rdkit.Chem.rdchem.Mol object at 0x7f5838e34040>, <rdkit.Chem.rdchem.Mol object at 0x7f5838e36490>, <rdkit.Chem.rdchem.Mol object at 0x7f5838e36180>, <rdkit.Chem.rdchem.Mol object at 0x7f5838e37220>, <rdkit.Chem.rdchem.Mol object at 0x7f5838e37920>]","[0, 0, 0, 0, 0, 3989, 3990, 3991, 3992, 3993, 3994, 1, 3995, 3996, 3997, 3998, 3999]"
PBDS-T,ITIC-Th1,-5.349999999999999,-3.67,-5.720000000000001,-4.065,1.0,CB,DIO,25.0,MoOx,ZnO,12.04,12.04,0.88,70.0,"[<rdkit.Chem.rdchem.Mol object at 0x7f5838e37a70>, <rdkit.Chem.rdchem.Mol object at 0x7f5838e37b50>, <rdkit.Chem.rdchem.Mol object at 0x7f5838e37990>, <rdkit.Chem.rdchem.Mol object at 0x7f5838e37760>, <rdkit.Chem.rdchem.Mol object at 0x7f5838e367a0>, <rdkit.Chem.rdchem.Mol object at 0x7f5838e377d0>]","[<rdkit.Chem.rdchem.Mol object at 0x7f5838e36340>, <rdkit.Chem.rdchem.Mol object at 0x7f5838e36f80>, <rdkit.Chem.rdchem.Mol object at 0x7f5838e37bc0>, <rdkit.Chem.rdchem.Mol object at 0x7f5838e36570>, <rdkit.Chem.rdchem.Mol object at 0x7f5838e37ed0>]","[<rdkit.Chem.rdchem.Mol object at 0x7f5838e37a70>, <rdkit.Chem.rdchem.Mol object at 0x7f5838e37b50>, <rdkit.Chem.rdchem.Mol object at 0x7f5838e37990>, <rdkit.Chem.rdchem.Mol object at 0x7f5838e37760>, <rdkit.Chem.rdchem.Mol object at 0x7f5838e367a0>, <rdkit.Chem.rdchem.Mol object at 0x7f5838e377d0>, '.', <rdkit.Chem.rdchem.Mol object at 0x7f5838e36340>, <rdkit.Chem.rdchem.Mol object at 0x7f5838e36f80>, <rdkit.Chem.rdchem.Mol object at 0x7f5838e37bc0>, <rdkit.Chem.rdchem.Mol object at 0x7f5838e36570>, <rdkit.Chem.rdchem.Mol object at 0x7f5838e37ed0>]","[0, 0, 0, 0, 0, 4000, 4001, 4002, 4003, 4004, 4005, 1, 4006, 4007, 4008, 4009, 4010]"
J71,ITDM,-5.353333333333333,-3.4318181818181825,-5.58,-3.82,1.0,CF,_,100.0,PEDOT:PSS,ZrAcAc,12.05,12.05,1.015,70.9,"[<rdkit.Chem.rdchem.Mol object at 0x7f5838e37d80>, <rdkit.Chem.rdchem.Mol object at 0x7f5838e366c0>, <rdkit.Chem.rdchem.Mol object at 0x7f5838e37ae0>, <rdkit.Chem.rdchem.Mol object at 0x7f5838e37d10>, <rdkit.Chem.rdchem.Mol object at 0x7f5838e363b0>, <rdkit.Chem.rdchem.Mol object at 0x7f5838e4c350>]","[<rdkit.Chem.rdchem.Mol object at 0x7f5838e36650>, <rdkit.Chem.rdchem.Mol object at 0x7f5838e37e60>, <rdkit.Chem.rdchem.Mol object at 0x7f5838e37c30>, <rdkit.Chem.rdchem.Mol object at 0x7f5838e37f40>, <rdkit.Chem.rdchem.Mol object at 0x7f5838e4c200>]","[<rdkit.Chem.rdchem.Mol object at 0x7f5838e37d80>, <rdkit.Chem.rdchem.Mol object at 0x7f5838e366c0>, <rdkit.Chem.rdchem.Mol object at 0x7f5838e37ae0>, <rdkit.Chem.rdchem.Mol object at 0x7f5838e37d10>, <rdkit.Chem.rdchem.Mol object at 0x7f5838e363b0>, <rdkit.Chem.rdchem.Mol object at 0x7f5838e4c350>, '.', <rdkit.Chem.rdchem.Mol object at 0x7f5838e36650>, <rdkit.Chem.rdchem.Mol object at 0x7f5838e37e60>, <rdkit.Chem.rdchem.Mol object at 0x7f5838e37c30>, <rdkit.Chem.rdchem.Mol object at 0x7f5838e37f40>, <rdkit.Chem.rdchem.Mol object at 0x7f5838e4c200>]","[0, 0, 0, 0, 0, 4011, 4012, 4013, 4014, 4015, 4016, 1, 4017, 4018, 4019, 4020, 4021]"
J71,ITCF,-5.353333333333333,-3.4318181818181825,-5.59,-3.95,1.0,CF,_,100.0,PEDOT:PSS,ZrAcAc,13.25,13.25,0.91,78.8,"[<rdkit.Chem.rdchem.Mol object at 0x7f5838e36a40>, <rdkit.Chem.rdchem.Mol object at 0x7f5838e36b20>, <rdkit.Chem.rdchem.Mol object at 0x7f5838e376f0>, <rdkit.Chem.rdchem.Mol object at 0x7f5838e37140>, <rdkit.Chem.rdchem.Mol object at 0x7f5838e4c430>, <rdkit.Chem.rdchem.Mol object at 0x7f5838e4c820>]","[<rdkit.Chem.rdchem.Mol object at 0x7f5838e37ca0>, <rdkit.Chem.rdchem.Mol object at 0x7f5838e4c6d0>, <rdkit.Chem.rdchem.Mol object at 0x7f5838e373e0>, <rdkit.Chem.rdchem.Mol object at 0x7f5838e37df0>, <rdkit.Chem.rdchem.Mol object at 0x7f5838e4c970>]","[<rdkit.Chem.rdchem.Mol object at 0x7f5838e36a40>, <rdkit.Chem.rdchem.Mol object at 0x7f5838e36b20>, <rdkit.Chem.rdchem.Mol object at 0x7f5838e376f0>, <rdkit.Chem.rdchem.Mol object at 0x7f5838e37140>, <rdkit.Chem.rdchem.Mol object at 0x7f5838e4c430>, <rdkit.Chem.rdchem.Mol object at 0x7f5838e4c820>, '.', <rdkit.Chem.rdchem.Mol object at 0x7f5838e37ca0>, <rdkit.Chem.rdchem.Mol object at 0x7f5838e4c6d0>, <rdkit.Chem.rdchem.Mol object at 0x7f5838e373e0>, <rdkit.Chem.rdchem.Mol object at 0x7f5838e37df0>, <rdkit.Chem.rdchem.Mol object at 0x7f5838e4c970>]","[0, 0, 0, 0, 0, 4022, 4023, 4024, 4025, 4026, 4027, 1, 4028, 4029, 4030, 4031, 4032]"
2TC-TT-BDTFT,m-ITIC,-5.45,-3.5,-5.526666666666667,-3.8515384615384622,1.0,o-DCB,_,120.0,PEDOT:PSS,PDINO,9.65,9.59,1.06,59.31,"[<rdkit.Chem.rdchem.Mol object at 0x7f5838e4d1c0>, <rdkit.Chem.rdchem.Mol object at 0x7f5838e4e030>, <rdkit.Chem.rdchem.Mol object at 0x7f5838e4c5f0>, <rdkit.Chem.rdchem.Mol object at 0x7f5838e4dcb0>, <rdkit.Chem.rdchem.Mol object at 0x7f5838e4e340>, <rdkit.Chem.rdchem.Mol object at 0x7f5838e4cc80>, <rdkit.Chem.rdchem.Mol object at 0x7f5838e4dfc0>, <rdkit.Chem.rdchem.Mol object at 0x7f5838e4cb30>, <rdkit.Chem.rdchem.Mol object at 0x7f5838e4e650>]","[<rdkit.Chem.rdchem.Mol object at 0x7f5838e4e7a0>, <rdkit.Chem.rdchem.Mol object at 0x7f5838e4c890>, <rdkit.Chem.rdchem.Mol object at 0x7f5838e4ce40>, <rdkit.Chem.rdchem.Mol object at 0x7f5838e4c7b0>, <rdkit.Chem.rdchem.Mol object at 0x7f5838e4e3b0>]","[<rdkit.Chem.rdchem.Mol object at 0x7f5838e4d1c0>, <rdkit.Chem.rdchem.Mol object at 0x7f5838e4e030>, <rdkit.Chem.rdchem.Mol object at 0x7f5838e4c5f0>, <rdkit.Chem.rdchem.Mol object at 0x7f5838e4dcb0>, <rdkit.Chem.rdchem.Mol object at 0x7f5838e4e340>, <rdkit.Chem.rdchem.Mol object at 0x7f5838e4cc80>, <rdkit.Chem.rdchem.Mol object at 0x7f5838e4dfc0>, <rdkit.Chem.rdchem.Mol object at 0x7f5838e4cb30>, <rdkit.Chem.rdchem.Mol object at 0x7f5838e4e650>, '.', <rdkit.Chem.rdchem.Mol object at 0x7f5838e4e7a0>, <rdkit.Chem.rdchem.Mol object at 0x7f5838e4c890>, <rdkit.Chem.rdchem.Mol object at 0x7f5838e4ce40>, <rdkit.Chem.rdchem.Mol object at 0x7f5838e4c7b0>, <rdkit.Chem.rdchem.Mol object at 0x7f5838e4e3b0>]","[0, 0, 4078, 4079, 4080, 4081, 4082, 4083, 4084, 4085, 4086, 1, 4087, 4088, 4089, 4090, 4091]"
2T-TTC-BDTFT,m-ITIC,-5.41,-3.53,-5.526666666666667,-3.8515384615384622,1.0,o-DCB,_,120.0,PEDOT:PSS,PDINO,11.15,11.15,0.97,69.37,"[<rdkit.Chem.rdchem.Mol object at 0x7f5838e4e490>, <rdkit.Chem.rdchem.Mol object at 0x7f5838e4d770>, <rdkit.Chem.rdchem.Mol object at 0x7f5838e4d700>, <rdkit.Chem.rdchem.Mol object at 0x7f5838e4da10>, <rdkit.Chem.rdchem.Mol object at 0x7f5838e4e6c0>, <rdkit.Chem.rdchem.Mol object at 0x7f5838e4daf0>, <rdkit.Chem.rdchem.Mol object at 0x7f5838e4e8f0>, <rdkit.Chem.rdchem.Mol object at 0x7f5838e4eab0>, <rdkit.Chem.rdchem.Mol object at 0x7f5838e4ece0>]","[<rdkit.Chem.rdchem.Mol object at 0x7f5838e4eea0>, <rdkit.Chem.rdchem.Mol object at 0x7f5838e4e260>, <rdkit.Chem.rdchem.Mol object at 0x7f5838e4ca50>, <rdkit.Chem.rdchem.Mol object at 0x7f5838e4e9d0>, <rdkit.Chem.rdchem.Mol object at 0x7f5838e4c580>]","[<rdkit.Chem.rdchem.Mol object at 0x7f5838e4e490>, <rdkit.Chem.rdchem.Mol object at 0x7f5838e4d770>, <rdkit.Chem.rdchem.Mol object at 0x7f5838e4d700>, <rdkit.Chem.rdchem.Mol object at 0x7f5838e4da10>, <rdkit.Chem.rdchem.Mol object at 0x7f5838e4e6c0>, <rdkit.Chem.rdchem.Mol object at 0x7f5838e4daf0>, <rdkit.Chem.rdchem.Mol object at 0x7f5838e4e8f0>, <rdkit.Chem.rdchem.Mol object at 0x7f5838e4eab0>, <rdkit.Chem.rdchem.Mol object at 0x7f5838e4ece0>, '.', <rdkit.Chem.rdchem.Mol object at 0x7f5838e4eea0>, <rdkit.Chem.rdchem.Mol object at 0x7f5838e4e260>, <rdkit.Chem.rdchem.Mol object at 0x7f5838e4ca50>, <rdkit.Chem.rdchem.Mol object at 0x7f5838e4e9d0>, <rdkit.Chem.rdchem.Mol object at 0x7f5838e4c580>]","[0, 0, 4092, 4093, 4094, 4095, 4096, 4097, 4098, 4099, 4100, 1, 4101, 4102, 4103, 4104, 4105]"