Donor,Acceptor,HOMO_D_eV,LUMO_D_eV,HOMO_A_eV,LUMO_A_eV,D_A_ratio_m_m,solvent,solvent_additive,annealing_temperature,hole_contact_layer,electron_contact_layer,PCE_percent,calc_PCE_percent,Voc_V,FF_percent,Donor_BRICS,Acceptor_BRICS,DA_pair_BRICS,DA_tokenized_BRICS
J71,BTA703,-5.353333333333333,-3.4318181818181825,-5.5,-3.9,2.0,CF,_,120.0,PEDOT:PSS,Ca,1.21,1.21,0.85,40.0,"[<rdkit.Chem.rdchem.Mol object at 0x7f5838e27b50>, <rdkit.Chem.rdchem.Mol object at 0x7f5838e25930>, <rdkit.Chem.rdchem.Mol object at 0x7f5838e25bd0>, <rdkit.Chem.rdchem.Mol object at 0x7f5838e25380>, <rdkit.Chem.rdchem.Mol object at 0x7f5838e25770>, <rdkit.Chem.rdchem.Mol object at 0x7f5838e25e70>]","[<rdkit.Chem.rdchem.Mol object at 0x7f5838e26570>, <rdkit.Chem.rdchem.Mol object at 0x7f5838e25230>, <rdkit.Chem.rdchem.Mol object at 0x7f5838e27920>, <rdkit.Chem.rdchem.Mol object at 0x7f5838e262d0>, <rdkit.Chem.rdchem.Mol object at 0x7f5838e26110>, <rdkit.Chem.rdchem.Mol object at 0x7f5838e2c3c0>, <rdkit.Chem.rdchem.Mol object at 0x7f5838e27f40>]","[<rdkit.Chem.rdchem.Mol object at 0x7f5838e27b50>, <rdkit.Chem.rdchem.Mol object at 0x7f5838e25930>, <rdkit.Chem.rdchem.Mol object at 0x7f5838e25bd0>, <rdkit.Chem.rdchem.Mol object at 0x7f5838e25380>, <rdkit.Chem.rdchem.Mol object at 0x7f5838e25770>, <rdkit.Chem.rdchem.Mol object at 0x7f5838e25e70>, '.', <rdkit.Chem.rdchem.Mol object at 0x7f5838e26570>, <rdkit.Chem.rdchem.Mol object at 0x7f5838e25230>, <rdkit.Chem.rdchem.Mol object at 0x7f5838e27920>, <rdkit.Chem.rdchem.Mol object at 0x7f5838e262d0>, <rdkit.Chem.rdchem.Mol object at 0x7f5838e26110>, <rdkit.Chem.rdchem.Mol object at 0x7f5838e2c3c0>, <rdkit.Chem.rdchem.Mol object at 0x7f5838e27f40>]","[0, 0, 0, 3675, 3676, 3677, 3678, 3679, 3680, 1, 3681, 3682, 3683, 3684, 3685, 3686, 3687]"
PTB7-Th,Py-1,-5.204782608695651,-3.5391891891891896,-5.79,-3.76,0.667,CF,_,25.0,MoOx,ZnO,5.88,5.82,0.74,65.0,"[<rdkit.Chem.rdchem.Mol object at 0x7f5838e27df0>, <rdkit.Chem.rdchem.Mol object at 0x7f5838e268f0>, <rdkit.Chem.rdchem.Mol object at 0x7f5838e27d80>, <rdkit.Chem.rdchem.Mol object at 0x7f5838e261f0>, <rdkit.Chem.rdchem.Mol object at 0x7f5838e27c30>, <rdkit.Chem.rdchem.Mol object at 0x7f5838e27060>, <rdkit.Chem.rdchem.Mol object at 0x7f5838e271b0>]","[<rdkit.Chem.rdchem.Mol object at 0x7f5838e27a70>, <rdkit.Chem.rdchem.Mol object at 0x7f5838e26dc0>, <rdkit.Chem.rdchem.Mol object at 0x7f5838e278b0>, <rdkit.Chem.rdchem.Mol object at 0x7f5838e27d10>, <rdkit.Chem.rdchem.Mol object at 0x7f5838e26880>]","[<rdkit.Chem.rdchem.Mol object at 0x7f5838e27df0>, <rdkit.Chem.rdchem.Mol object at 0x7f5838e268f0>, <rdkit.Chem.rdchem.Mol object at 0x7f5838e27d80>, <rdkit.Chem.rdchem.Mol object at 0x7f5838e261f0>, <rdkit.Chem.rdchem.Mol object at 0x7f5838e27c30>, <rdkit.Chem.rdchem.Mol object at 0x7f5838e27060>, <rdkit.Chem.rdchem.Mol object at 0x7f5838e271b0>, '.', <rdkit.Chem.rdchem.Mol object at 0x7f5838e27a70>, <rdkit.Chem.rdchem.Mol object at 0x7f5838e26dc0>, <rdkit.Chem.rdchem.Mol object at 0x7f5838e278b0>, <rdkit.Chem.rdchem.Mol object at 0x7f5838e27d10>, <rdkit.Chem.rdchem.Mol object at 0x7f5838e26880>]","[0, 0, 0, 0, 3688, 3689, 3690, 3691, 3692, 3693, 3694, 1, 3695, 3696, 3697, 3698, 3699]"
PTB7-Th,Py-2,-5.204782608695651,-3.5391891891891896,-5.83,-3.78,1.0,CF,_,25.0,MoOx,ZnO,3.47,3.41,0.75,47.0,"[<rdkit.Chem.rdchem.Mol object at 0x7f5838e25f50>, <rdkit.Chem.rdchem.Mol object at 0x7f5838e26730>, <rdkit.Chem.rdchem.Mol object at 0x7f5838e26340>, <rdkit.Chem.rdchem.Mol object at 0x7f5838e25e00>, <rdkit.Chem.rdchem.Mol object at 0x7f5838e26500>, <rdkit.Chem.rdchem.Mol object at 0x7f5838e260a0>, <rdkit.Chem.rdchem.Mol object at 0x7f5838e26810>]","[<rdkit.Chem.rdchem.Mol object at 0x7f5838e267a0>, <rdkit.Chem.rdchem.Mol object at 0x7f5838e26650>, <rdkit.Chem.rdchem.Mol object at 0x7f5838e27ca0>, <rdkit.Chem.rdchem.Mol object at 0x7f5838e27300>, <rdkit.Chem.rdchem.Mol object at 0x7f5838e26ea0>]","[<rdkit.Chem.rdchem.Mol object at 0x7f5838e25f50>, <rdkit.Chem.rdchem.Mol object at 0x7f5838e26730>, <rdkit.Chem.rdchem.Mol object at 0x7f5838e26340>, <rdkit.Chem.rdchem.Mol object at 0x7f5838e25e00>, <rdkit.Chem.rdchem.Mol object at 0x7f5838e26500>, <rdkit.Chem.rdchem.Mol object at 0x7f5838e260a0>, <rdkit.Chem.rdchem.Mol object at 0x7f5838e26810>, '.', <rdkit.Chem.rdchem.Mol object at 0x7f5838e267a0>, <rdkit.Chem.rdchem.Mol object at 0x7f5838e26650>, <rdkit.Chem.rdchem.Mol object at 0x7f5838e27ca0>, <rdkit.Chem.rdchem.Mol object at 0x7f5838e27300>, <rdkit.Chem.rdchem.Mol object at 0x7f5838e26ea0>]","[0, 0, 0, 0, 3700, 3701, 3702, 3703, 3704, 3705, 3706, 1, 3707, 3708, 3709, 3710, 3711]"
PBB-T,IT-2F,-5.4,-3.3,-5.665,-4.095,0.833,CB,_,150.0,PEDOT:PSS,PDINO,13.3,13.31,0.91,70.0,"[<rdkit.Chem.rdchem.Mol object at 0x7f5838e25850>, <rdkit.Chem.rdchem.Mol object at 0x7f5838e27840>, <rdkit.Chem.rdchem.Mol object at 0x7f5838e263b0>, <rdkit.Chem.rdchem.Mol object at 0x7f5838e26a40>, <rdkit.Chem.rdchem.Mol object at 0x7f5838e27530>, <rdkit.Chem.rdchem.Mol object at 0x7f5838e26b20>, <rdkit.Chem.rdchem.Mol object at 0x7f5838e24b30>, <rdkit.Chem.rdchem.Mol object at 0x7f5838e24ac0>]","[<rdkit.Chem.rdchem.Mol object at 0x7f5838e258c0>, <rdkit.Chem.rdchem.Mol object at 0x7f5838e27a00>, <rdkit.Chem.rdchem.Mol object at 0x7f5838e26030>, <rdkit.Chem.rdchem.Mol object at 0x7f5838e26d50>, <rdkit.Chem.rdchem.Mol object at 0x7f5838e25690>]","[<rdkit.Chem.rdchem.Mol object at 0x7f5838e25850>, <rdkit.Chem.rdchem.Mol object at 0x7f5838e27840>, <rdkit.Chem.rdchem.Mol object at 0x7f5838e263b0>, <rdkit.Chem.rdchem.Mol object at 0x7f5838e26a40>, <rdkit.Chem.rdchem.Mol object at 0x7f5838e27530>, <rdkit.Chem.rdchem.Mol object at 0x7f5838e26b20>, <rdkit.Chem.rdchem.Mol object at 0x7f5838e24b30>, <rdkit.Chem.rdchem.Mol object at 0x7f5838e24ac0>, '.', <rdkit.Chem.rdchem.Mol object at 0x7f5838e258c0>, <rdkit.Chem.rdchem.Mol object at 0x7f5838e27a00>, <rdkit.Chem.rdchem.Mol object at 0x7f5838e26030>, <rdkit.Chem.rdchem.Mol object at 0x7f5838e26d50>, <rdkit.Chem.rdchem.Mol object at 0x7f5838e25690>]","[0, 0, 0, 3712, 3713, 3714, 3715, 3716, 3717, 3718, 3719, 1, 3720, 3721, 3722, 3723, 3724]"
P_TBTT-BTT,ICz-RdCN2,-5.15,-3.58,-5.58,-3.98,1.0,CF,_,40.0,PEDOT:PSS,PFN,9.76,9.76,1.01,62.0,"[<rdkit.Chem.rdchem.Mol object at 0x7f5838e26f10>, <rdkit.Chem.rdchem.Mol object at 0x7f5838e24430>, <rdkit.Chem.rdchem.Mol object at 0x7f5838e247b0>, <rdkit.Chem.rdchem.Mol object at 0x7f5838e2c040>, <rdkit.Chem.rdchem.Mol object at 0x7f5838e2c5f0>]","[<rdkit.Chem.rdchem.Mol object at 0x7f5838e25fc0>, <rdkit.Chem.rdchem.Mol object at 0x7f5838e25d90>, <rdkit.Chem.rdchem.Mol object at 0x7f5838e243c0>, <rdkit.Chem.rdchem.Mol object at 0x7f5838e25cb0>]","[<rdkit.Chem.rdchem.Mol object at 0x7f5838e26f10>, <rdkit.Chem.rdchem.Mol object at 0x7f5838e24430>, <rdkit.Chem.rdchem.Mol object at 0x7f5838e247b0>, <rdkit.Chem.rdchem.Mol object at 0x7f5838e2c040>, <rdkit.Chem.rdchem.Mol object at 0x7f5838e2c5f0>, '.', <rdkit.Chem.rdchem.Mol object at 0x7f5838e25fc0>, <rdkit.Chem.rdchem.Mol object at 0x7f5838e25d90>, <rdkit.Chem.rdchem.Mol object at 0x7f5838e243c0>, <rdkit.Chem.rdchem.Mol object at 0x7f5838e25cb0>]","[0, 0, 0, 0, 0, 0, 0, 3747, 3748, 3749, 3750, 3751, 1, 3752, 3753, 3754, 3755]"
PBZ,IT-4F,-5.18,-3.22,-5.66875,-4.060416666666667,1.0,Toluene,PN,25.0,MoOx,ZnO,6.4,6.45,0.6,63.2,"[<rdkit.Chem.rdchem.Mol object at 0x7f5838e25150>, <rdkit.Chem.rdchem.Mol object at 0x7f5838e27220>, <rdkit.Chem.rdchem.Mol object at 0x7f5838e2c740>, <rdkit.Chem.rdchem.Mol object at 0x7f5838e2c580>, <rdkit.Chem.rdchem.Mol object at 0x7f5838e2c6d0>, <rdkit.Chem.rdchem.Mol object at 0x7f5838e2cf90>]","[<rdkit.Chem.rdchem.Mol object at 0x7f5838e24200>, <rdkit.Chem.rdchem.Mol object at 0x7f5838e2c9e0>, <rdkit.Chem.rdchem.Mol object at 0x7f5838e27ed0>, <rdkit.Chem.rdchem.Mol object at 0x7f5838e2cdd0>, <rdkit.Chem.rdchem.Mol object at 0x7f5838e2c7b0>]","[<rdkit.Chem.rdchem.Mol object at 0x7f5838e25150>, <rdkit.Chem.rdchem.Mol object at 0x7f5838e27220>, <rdkit.Chem.rdchem.Mol object at 0x7f5838e2c740>, <rdkit.Chem.rdchem.Mol object at 0x7f5838e2c580>, <rdkit.Chem.rdchem.Mol object at 0x7f5838e2c6d0>, <rdkit.Chem.rdchem.Mol object at 0x7f5838e2cf90>, '.', <rdkit.Chem.rdchem.Mol object at 0x7f5838e24200>, <rdkit.Chem.rdchem.Mol object at 0x7f5838e2c9e0>, <rdkit.Chem.rdchem.Mol object at 0x7f5838e27ed0>, <rdkit.Chem.rdchem.Mol object at 0x7f5838e2cdd0>, <rdkit.Chem.rdchem.Mol object at 0x7f5838e2c7b0>]","[0, 0, 0, 0, 0, 3756, 3757, 3758, 3759, 3760, 3761, 1, 3762, 3763, 3764, 3765, 3766]"
PBZ-Cl,IT-4F,-5.39,-3.41,-5.66875,-4.060416666666667,1.0,Toluene,PN,25.0,MoOx,ZnO,9.7,9.67,0.8,68.3,"[<rdkit.Chem.rdchem.Mol object at 0x7f5838e253f0>, <rdkit.Chem.rdchem.Mol object at 0x7f5838e251c0>, <rdkit.Chem.rdchem.Mol object at 0x7f5838e2ceb0>, <rdkit.Chem.rdchem.Mol object at 0x7f5838e2ce40>, <rdkit.Chem.rdchem.Mol object at 0x7f5838e24c10>, <rdkit.Chem.rdchem.Mol object at 0x7f5838e2c510>, <rdkit.Chem.rdchem.Mol object at 0x7f5838e2d310>]","[<rdkit.Chem.rdchem.Mol object at 0x7f5838e2cd60>, <rdkit.Chem.rdchem.Mol object at 0x7f5838e2d150>, <rdkit.Chem.rdchem.Mol object at 0x7f5838e26960>, <rdkit.Chem.rdchem.Mol object at 0x7f5838e2c0b0>, <rdkit.Chem.rdchem.Mol object at 0x7f5838e2ca50>]","[<rdkit.Chem.rdchem.Mol object at 0x7f5838e253f0>, <rdkit.Chem.rdchem.Mol object at 0x7f5838e251c0>, <rdkit.Chem.rdchem.Mol object at 0x7f5838e2ceb0>, <rdkit.Chem.rdchem.Mol object at 0x7f5838e2ce40>, <rdkit.Chem.rdchem.Mol object at 0x7f5838e24c10>, <rdkit.Chem.rdchem.Mol object at 0x7f5838e2c510>, <rdkit.Chem.rdchem.Mol object at 0x7f5838e2d310>, '.', <rdkit.Chem.rdchem.Mol object at 0x7f5838e2cd60>, <rdkit.Chem.rdchem.Mol object at 0x7f5838e2d150>, <rdkit.Chem.rdchem.Mol object at 0x7f5838e26960>, <rdkit.Chem.rdchem.Mol object at 0x7f5838e2c0b0>, <rdkit.Chem.rdchem.Mol object at 0x7f5838e2ca50>]","[0, 0, 0, 0, 3767, 3768, 3769, 3770, 3771, 3772, 3773, 1, 3774, 3775, 3776, 3777, 3778]"
PT1,ITIC,-5.46,-3.59,-5.574146341463415,-3.915,0.667,CB,_,25.0,MoOx,ZnO,2.13,2.14,0.95,39.0,"[<rdkit.Chem.rdchem.Mol object at 0x7f5838e277d0>, <rdkit.Chem.rdchem.Mol object at 0x7f5838e2d930>, <rdkit.Chem.rdchem.Mol object at 0x7f5838e2c120>, <rdkit.Chem.rdchem.Mol object at 0x7f5838e2d1c0>, <rdkit.Chem.rdchem.Mol object at 0x7f5838e2d0e0>]","[<rdkit.Chem.rdchem.Mol object at 0x7f5838e2d5b0>, <rdkit.Chem.rdchem.Mol object at 0x7f5838e2d690>, <rdkit.Chem.rdchem.Mol object at 0x7f5838e2d540>, <rdkit.Chem.rdchem.Mol object at 0x7f5838e2c820>, <rdkit.Chem.rdchem.Mol object at 0x7f5838e2d7e0>]","[<rdkit.Chem.rdchem.Mol object at 0x7f5838e277d0>, <rdkit.Chem.rdchem.Mol object at 0x7f5838e2d930>, <rdkit.Chem.rdchem.Mol object at 0x7f5838e2c120>, <rdkit.Chem.rdchem.Mol object at 0x7f5838e2d1c0>, <rdkit.Chem.rdchem.Mol object at 0x7f5838e2d0e0>, '.', <rdkit.Chem.rdchem.Mol object at 0x7f5838e2d5b0>, <rdkit.Chem.rdchem.Mol object at 0x7f5838e2d690>, <rdkit.Chem.rdchem.Mol object at 0x7f5838e2d540>, <rdkit.Chem.rdchem.Mol object at 0x7f5838e2c820>, <rdkit.Chem.rdchem.Mol object at 0x7f5838e2d7e0>]","[0, 0, 0, 0, 0, 0, 3790, 3791, 3792, 3793, 3794, 1, 3795, 3796, 3797, 3798, 3799]"
PT2,ITIC,-5.35,-3.58,-5.574146341463415,-3.915,0.667,CB,_,25.0,MoOx,ZnO,9.0,8.78,0.84,64.0,"[<rdkit.Chem.rdchem.Mol object at 0x7f5838e259a0>, <rdkit.Chem.rdchem.Mol object at 0x7f5838e2dd20>, <rdkit.Chem.rdchem.Mol object at 0x7f5838e2dcb0>, <rdkit.Chem.rdchem.Mol object at 0x7f5838e2d850>, <rdkit.Chem.rdchem.Mol object at 0x7f5838e2dfc0>, <rdkit.Chem.rdchem.Mol object at 0x7f5838e2ea40>]","[<rdkit.Chem.rdchem.Mol object at 0x7f5838e2e9d0>, <rdkit.Chem.rdchem.Mol object at 0x7f5838e2e340>, <rdkit.Chem.rdchem.Mol object at 0x7f5838e2e2d0>, <rdkit.Chem.rdchem.Mol object at 0x7f5838e2e110>, <rdkit.Chem.rdchem.Mol object at 0x7f5838e2c970>]","[<rdkit.Chem.rdchem.Mol object at 0x7f5838e259a0>, <rdkit.Chem.rdchem.Mol object at 0x7f5838e2dd20>, <rdkit.Chem.rdchem.Mol object at 0x7f5838e2dcb0>, <rdkit.Chem.rdchem.Mol object at 0x7f5838e2d850>, <rdkit.Chem.rdchem.Mol object at 0x7f5838e2dfc0>, <rdkit.Chem.rdchem.Mol object at 0x7f5838e2ea40>, '.', <rdkit.Chem.rdchem.Mol object at 0x7f5838e2e9d0>, <rdkit.Chem.rdchem.Mol object at 0x7f5838e2e340>, <rdkit.Chem.rdchem.Mol object at 0x7f5838e2e2d0>, <rdkit.Chem.rdchem.Mol object at 0x7f5838e2e110>, <rdkit.Chem.rdchem.Mol object at 0x7f5838e2c970>]","[0, 0, 0, 0, 0, 3800, 3801, 3802, 3803, 3804, 3805, 1, 3806, 3807, 3808, 3809, 3810]"
PBDB-T,DF-TCIC,-5.297714285714285,-3.4170000000000003,-5.37,-3.76,0.833,CF,CN,140.0,MoOx,PFN,8.23,8.18,0.86,58.0,"[<rdkit.Chem.rdchem.Mol object at 0x7f5838e2edc0>, <rdkit.Chem.rdchem.Mol object at 0x7f5838e2fca0>, <rdkit.Chem.rdchem.Mol object at 0x7f5838e2fa00>, <rdkit.Chem.rdchem.Mol object at 0x7f5838e2eff0>, <rdkit.Chem.rdchem.Mol object at 0x7f5838e2c890>]","[<rdkit.Chem.rdchem.Mol object at 0x7f5838e2d620>, <rdkit.Chem.rdchem.Mol object at 0x7f5838e2e5e0>, <rdkit.Chem.rdchem.Mol object at 0x7f5838e2f5a0>, <rdkit.Chem.rdchem.Mol object at 0x7f5838e2fe60>, <rdkit.Chem.rdchem.Mol object at 0x7f5838e2ed50>]","[<rdkit.Chem.rdchem.Mol object at 0x7f5838e2edc0>, <rdkit.Chem.rdchem.Mol object at 0x7f5838e2fca0>, <rdkit.Chem.rdchem.Mol object at 0x7f5838e2fa00>, <rdkit.Chem.rdchem.Mol object at 0x7f5838e2eff0>, <rdkit.Chem.rdchem.Mol object at 0x7f5838e2c890>, '.', <rdkit.Chem.rdchem.Mol object at 0x7f5838e2d620>, <rdkit.Chem.rdchem.Mol object at 0x7f5838e2e5e0>, <rdkit.Chem.rdchem.Mol object at 0x7f5838e2f5a0>, <rdkit.Chem.rdchem.Mol object at 0x7f5838e2fe60>, <rdkit.Chem.rdchem.Mol object at 0x7f5838e2ed50>]","[0, 0, 0, 0, 0, 0, 3824, 3825, 3826, 3827, 3828, 1, 3829, 3830, 3831, 3832, 3833]"
PBDB-T,HF-TCIC,-5.297714285714285,-3.4170000000000003,-5.43,-3.83,0.833,CF,CN,120.0,MoOx,PFN,9.86,9.9,0.76,65.0,"[<rdkit.Chem.rdchem.Mol object at 0x7f5838e2ec00>, <rdkit.Chem.rdchem.Mol object at 0x7f5838e2fd10>, <rdkit.Chem.rdchem.Mol object at 0x7f5838e2fbc0>, <rdkit.Chem.rdchem.Mol object at 0x7f5838e2fc30>, <rdkit.Chem.rdchem.Mol object at 0x7f5838e2df50>]","[<rdkit.Chem.rdchem.Mol object at 0x7f5838e2e3b0>, <rdkit.Chem.rdchem.Mol object at 0x7f5838e2f450>, <rdkit.Chem.rdchem.Mol object at 0x7f5838e2f0d0>, <rdkit.Chem.rdchem.Mol object at 0x7f5838e2e810>, <rdkit.Chem.rdchem.Mol object at 0x7f5838e2e260>]","[<rdkit.Chem.rdchem.Mol object at 0x7f5838e2ec00>, <rdkit.Chem.rdchem.Mol object at 0x7f5838e2fd10>, <rdkit.Chem.rdchem.Mol object at 0x7f5838e2fbc0>, <rdkit.Chem.rdchem.Mol object at 0x7f5838e2fc30>, <rdkit.Chem.rdchem.Mol object at 0x7f5838e2df50>, '.', <rdkit.Chem.rdchem.Mol object at 0x7f5838e2e3b0>, <rdkit.Chem.rdchem.Mol object at 0x7f5838e2f450>, <rdkit.Chem.rdchem.Mol object at 0x7f5838e2f0d0>, <rdkit.Chem.rdchem.Mol object at 0x7f5838e2e810>, <rdkit.Chem.rdchem.Mol object at 0x7f5838e2e260>]","[0, 0, 0, 0, 0, 0, 3834, 3835, 3836, 3837, 3838, 1, 3839, 3840, 3841, 3842, 3843]"
BO2FC8,m-ITIC-OR-4Cl,-5.5,-3.6,-5.78,-4.05,0.667,CB,_,150.0,MoOx,ZnO,11.0,10.61,0.83,63.3,"[<rdkit.Chem.rdchem.Mol object at 0x7f5838e2ef80>, <rdkit.Chem.rdchem.Mol object at 0x7f5838e2f060>, <rdkit.Chem.rdchem.Mol object at 0x7f5838e2d8c0>, <rdkit.Chem.rdchem.Mol object at 0x7f5838e2f1b0>, <rdkit.Chem.rdchem.Mol object at 0x7f5838e2ec70>, <rdkit.Chem.rdchem.Mol object at 0x7f5838e2cf20>, <rdkit.Chem.rdchem.Mol object at 0x7f5838e2f680>, <rdkit.Chem.rdchem.Mol object at 0x7f5838e2e570>]","[<rdkit.Chem.rdchem.Mol object at 0x7f5838e2e1f0>, <rdkit.Chem.rdchem.Mol object at 0x7f5838e2e8f0>, <rdkit.Chem.rdchem.Mol object at 0x7f5838e2f530>, <rdkit.Chem.rdchem.Mol object at 0x7f5838e2f370>, <rdkit.Chem.rdchem.Mol object at 0x7f5838e2e880>, <rdkit.Chem.rdchem.Mol object at 0x7f5838e2f920>]","[<rdkit.Chem.rdchem.Mol object at 0x7f5838e2ef80>, <rdkit.Chem.rdchem.Mol object at 0x7f5838e2f060>, <rdkit.Chem.rdchem.Mol object at 0x7f5838e2d8c0>, <rdkit.Chem.rdchem.Mol object at 0x7f5838e2f1b0>, <rdkit.Chem.rdchem.Mol object at 0x7f5838e2ec70>, <rdkit.Chem.rdchem.Mol object at 0x7f5838e2cf20>, <rdkit.Chem.rdchem.Mol object at 0x7f5838e2f680>, <rdkit.Chem.rdchem.Mol object at 0x7f5838e2e570>, '.', <rdkit.Chem.rdchem.Mol object at 0x7f5838e2e1f0>, <rdkit.Chem.rdchem.Mol object at 0x7f5838e2e8f0>, <rdkit.Chem.rdchem.Mol object at 0x7f5838e2f530>, <rdkit.Chem.rdchem.Mol object at 0x7f5838e2f370>, <rdkit.Chem.rdchem.Mol object at 0x7f5838e2e880>, <rdkit.Chem.rdchem.Mol object at 0x7f5838e2f920>]","[0, 0, 3844, 3845, 3846, 3847, 3848, 3849, 3850, 3851, 1, 3852, 3853, 3854, 3855, 3856, 3857]"
BO2FEH,m-ITIC-OR-4Cl,-5.59,-3.59,-5.78,-4.05,0.667,CB,_,150.0,MoOx,ZnO,6.4,6.15,0.88,48.5,"[<rdkit.Chem.rdchem.Mol object at 0x7f5838e2d000>, <rdkit.Chem.rdchem.Mol object at 0x7f5838e2c270>, <rdkit.Chem.rdchem.Mol object at 0x7f5838e2da80>, <rdkit.Chem.rdchem.Mol object at 0x7f5838e2e730>, <rdkit.Chem.rdchem.Mol object at 0x7f5838e2f290>, <rdkit.Chem.rdchem.Mol object at 0x7f5838e2daf0>, <rdkit.Chem.rdchem.Mol object at 0x7f5838e2fd80>, <rdkit.Chem.rdchem.Mol object at 0x7f5838e2d070>]","[<rdkit.Chem.rdchem.Mol object at 0x7f5838e2c200>, <rdkit.Chem.rdchem.Mol object at 0x7f5838e2cc80>, <rdkit.Chem.rdchem.Mol object at 0x7f5838e2f7d0>, <rdkit.Chem.rdchem.Mol object at 0x7f5838e2dd90>, <rdkit.Chem.rdchem.Mol object at 0x7f5838e2ef10>, <rdkit.Chem.rdchem.Mol object at 0x7f5838e2de00>]","[<rdkit.Chem.rdchem.Mol object at 0x7f5838e2d000>, <rdkit.Chem.rdchem.Mol object at 0x7f5838e2c270>, <rdkit.Chem.rdchem.Mol object at 0x7f5838e2da80>, <rdkit.Chem.rdchem.Mol object at 0x7f5838e2e730>, <rdkit.Chem.rdchem.Mol object at 0x7f5838e2f290>, <rdkit.Chem.rdchem.Mol object at 0x7f5838e2daf0>, <rdkit.Chem.rdchem.Mol object at 0x7f5838e2fd80>, <rdkit.Chem.rdchem.Mol object at 0x7f5838e2d070>, '.', <rdkit.Chem.rdchem.Mol object at 0x7f5838e2c200>, <rdkit.Chem.rdchem.Mol object at 0x7f5838e2cc80>, <rdkit.Chem.rdchem.Mol object at 0x7f5838e2f7d0>, <rdkit.Chem.rdchem.Mol object at 0x7f5838e2dd90>, <rdkit.Chem.rdchem.Mol object at 0x7f5838e2ef10>, <rdkit.Chem.rdchem.Mol object at 0x7f5838e2de00>]","[0, 0, 3858, 3859, 3860, 3861, 3862, 3863, 3864, 3865, 1, 3866, 3867, 3868, 3869, 3870, 3871]"
PTB-EDOTS,ITIC-Th,-5.38,-3.69,-5.673333333333334,-3.908888888888889,0.667,MeTHF,_,100.0,MoOx,ZnO,10.18,10.18,0.88,71.2,"[<rdkit.Chem.rdchem.Mol object at 0x7f5838e2da10>, <rdkit.Chem.rdchem.Mol object at 0x7f5838e2fed0>, <rdkit.Chem.rdchem.Mol object at 0x7f5838e2e7a0>, <rdkit.Chem.rdchem.Mol object at 0x7f5838e2eea0>, <rdkit.Chem.rdchem.Mol object at 0x7f5838e2ece0>, <rdkit.Chem.rdchem.Mol object at 0x7f5838e2ff40>, <rdkit.Chem.rdchem.Mol object at 0x7f5838e34120>]","[<rdkit.Chem.rdchem.Mol object at 0x7f5838e2eab0>, <rdkit.Chem.rdchem.Mol object at 0x7f5838e34270>, <rdkit.Chem.rdchem.Mol object at 0x7f5838e2d9a0>, <rdkit.Chem.rdchem.Mol object at 0x7f5838e2e960>, <rdkit.Chem.rdchem.Mol object at 0x7f5838e34820>]","[<rdkit.Chem.rdchem.Mol object at 0x7f5838e2da10>, <rdkit.Chem.rdchem.Mol object at 0x7f5838e2fed0>, <rdkit.Chem.rdchem.Mol object at 0x7f5838e2e7a0>, <rdkit.Chem.rdchem.Mol object at 0x7f5838e2eea0>, <rdkit.Chem.rdchem.Mol object at 0x7f5838e2ece0>, <rdkit.Chem.rdchem.Mol object at 0x7f5838e2ff40>, <rdkit.Chem.rdchem.Mol object at 0x7f5838e34120>, '.', <rdkit.Chem.rdchem.Mol object at 0x7f5838e2eab0>, <rdkit.Chem.rdchem.Mol object at 0x7f5838e34270>, <rdkit.Chem.rdchem.Mol object at 0x7f5838e2d9a0>, <rdkit.Chem.rdchem.Mol object at 0x7f5838e2e960>, <rdkit.Chem.rdchem.Mol object at 0x7f5838e34820>]","[0, 0, 0, 0, 3884, 3885, 3886, 3887, 3888, 3889, 3890, 1, 3891, 3892, 3893, 3894, 3895]"