Donor,Acceptor,HOMO_D_eV,LUMO_D_eV,HOMO_A_eV,LUMO_A_eV,D_A_ratio_m_m,solvent,total_solids_conc_mg_mL,solvent_additive,annealing_temperature,hole_contact_layer,electron_contact_layer,PCE_percent,calc_PCE_percent,Voc_V,FF_percent,Donor_BRICS,Acceptor_BRICS,DA_pair_BRICS,DA_tokenized_BRICS
PBDT-TT,6TIC,-5.23,-3.34,-5.33,-3.885,0.667,o-DCB,25.0,_,25,PEDOT:PSS,C60-bissalt,9.46,9.46,0.812,61.0,"['O', 'CCCCC(C)CC', 'C=O', 'CCCCC(C)CC', 'Cc1cccs1', 'c1ccsc1', 'c1cc2sccc2s1', 'Cc1cc2cc3sccc3cc2s1']","['N#CCC#N', 'O=C1CCc2ccccc21', 'C', 'CCCCCC', 'c1ccc(C2(c3ccccc3)c3c(sc4ccsc34)-c3sc4c5c(sc4c32)-c2sc3ccsc3c2C5(c2ccccc2)c2ccccc2)cc1']","['O', 'CCCCC(C)CC', 'C=O', 'CCCCC(C)CC', 'Cc1cccs1', 'c1ccsc1', 'c1cc2sccc2s1', 'Cc1cc2cc3sccc3cc2s1', '.', 'N#CCC#N', 'O=C1CCc2ccccc21', 'C', 'CCCCCC', 'c1ccc(C2(c3ccccc3)c3c(sc4ccsc34)-c3sc4c5c(sc4c32)-c2sc3ccsc3c2C5(c2ccccc2)c2ccccc2)cc1']","[0, 0, 0, 2, 3, 4, 3, 5, 6, 7, 8, 1, 9, 10, 11, 12, 13]"
PBDT-TT,IT-M,-5.23,-3.34,-5.513571428571429,-3.808,0.667,o-DCB,25.0,_,25,PEDOT:PSS,C60-bissalt,9.99,9.99,0.904,67.0,"['O', 'CCCCC(C)CC', 'C=O', 'CCCCC(C)CC', 'Cc1cccs1', 'c1ccsc1', 'c1cc2sccc2s1', 'Cc1cc2cc3sccc3cc2s1']","['N#CCC#N', 'Cc1ccc2c(c1)CCC2=O', 'C', 'CCCCCC', 'c1ccc(C2(c3ccccc3)c3cc4c(cc3-c3sc5ccsc5c32)C(c2ccccc2)(c2ccccc2)c2c-4sc3ccsc23)cc1']","['O', 'CCCCC(C)CC', 'C=O', 'CCCCC(C)CC', 'Cc1cccs1', 'c1ccsc1', 'c1cc2sccc2s1', 'Cc1cc2cc3sccc3cc2s1', '.', 'N#CCC#N', 'Cc1ccc2c(c1)CCC2=O', 'C', 'CCCCCC', 'c1ccc(C2(c3ccccc3)c3cc4c(cc3-c3sc5ccsc5c32)C(c2ccccc2)(c2ccccc2)c2c-4sc3ccsc23)cc1']","[0, 0, 0, 2, 3, 4, 3, 5, 6, 7, 8, 1, 9, 15, 11, 12, 14]"
J52,BTA13,-5.218571428571429,-3.341428571428572,-5.34,-3.62,1.0,CF,12.0,CN,170,PEDOT:PSS,Ca,7.82,7.82,1.05,58.66,"['CCCCCCCCC(C)CCCCCC', 'CCCCC(C)CC', 'CCCCC(C)CC', 'c1ccsc1', 'Cc1cccs1', 'Fc1cc2nnnc2cc1F', 'Cc1cc2cc3sccc3cc2s1']","['CCCCCCCC', 'CC', 'CCCCCC', 'N#CC(C#N)=c1nc(=O)/c(=C\\c2cccc3nnnc23)s1', 'c1ccc(C2(c3ccccc3)c3cc4c(cc3-c3sc5ccsc5c32)C(c2ccccc2)(c2ccccc2)c2c-4sc3ccsc23)cc1']","['CCCCCCCCC(C)CCCCCC', 'CCCCC(C)CC', 'CCCCC(C)CC', 'c1ccsc1', 'Cc1cccs1', 'Fc1cc2nnnc2cc1F', 'Cc1cc2cc3sccc3cc2s1', '.', 'CCCCCCCC', 'CC', 'CCCCCC', 'N#CC(C#N)=c1nc(=O)/c(=C\\c2cccc3nnnc23)s1', 'c1ccc(C2(c3ccccc3)c3cc4c(cc3-c3sc5ccsc5c32)C(c2ccccc2)(c2ccccc2)c2c-4sc3ccsc23)cc1']","[0, 0, 0, 0, 16, 3, 3, 6, 5, 18, 8, 1, 20, 21, 12, 22, 14]"
J52-F,BTA13,-5.29,-3.38,-5.34,-3.62,1.0,CF,12.0,CN,150,PEDOT:PSS,Ca,8.36,8.36,1.18,61.34,"['CCCCCCCCC(C)CCCCCC', 'CCCCC(C)CC', 'CCCCC(C)CC', 'Fc1ccsc1', 'Cc1cccs1', 'c1ccsc1', 'Fc1cc2nnnc2cc1F', 'Cc1cc2cc3sccc3cc2s1']","['CCCCCCCC', 'CC', 'CCCCCC', 'N#CC(C#N)=c1nc(=O)/c(=C\\c2cccc3nnnc23)s1', 'c1ccc(C2(c3ccccc3)c3cc4c(cc3-c3sc5ccsc5c32)C(c2ccccc2)(c2ccccc2)c2c-4sc3ccsc23)cc1']","['CCCCCCCCC(C)CCCCCC', 'CCCCC(C)CC', 'CCCCC(C)CC', 'Fc1ccsc1', 'Cc1cccs1', 'c1ccsc1', 'Fc1cc2nnnc2cc1F', 'Cc1cc2cc3sccc3cc2s1', '.', 'CCCCCCCC', 'CC', 'CCCCCC', 'N#CC(C#N)=c1nc(=O)/c(=C\\c2cccc3nnnc23)s1', 'c1ccc(C2(c3ccccc3)c3cc4c(cc3-c3sc5ccsc5c32)C(c2ccccc2)(c2ccccc2)c2c-4sc3ccsc23)cc1']","[0, 0, 0, 16, 3, 3, 23, 5, 6, 18, 8, 1, 20, 21, 12, 22, 14]"
J52-FS,BTA13,-5.32,-3.39,-5.34,-3.62,1.0,CF,12.0,CN,150,PEDOT:PSS,Ca,3.84,3.84,1.24,45.96,"['CCCCC(C)CC', 'CCCCCCCCC(C)CCCCCC', 'S', 'Fc1ccsc1', 'Cc1cccs1', 'c1ccsc1', 'Fc1cc2nnnc2cc1F', 'Cc1cc2cc3sccc3cc2s1']","['CCCCCCCC', 'CC', 'CCCCCC', 'N#CC(C#N)=c1nc(=O)/c(=C\\c2cccc3nnnc23)s1', 'c1ccc(C2(c3ccccc3)c3cc4c(cc3-c3sc5ccsc5c32)C(c2ccccc2)(c2ccccc2)c2c-4sc3ccsc23)cc1']","['CCCCC(C)CC', 'CCCCCCCCC(C)CCCCCC', 'S', 'Fc1ccsc1', 'Cc1cccs1', 'c1ccsc1', 'Fc1cc2nnnc2cc1F', 'Cc1cc2cc3sccc3cc2s1', '.', 'CCCCCCCC', 'CC', 'CCCCCC', 'N#CC(C#N)=c1nc(=O)/c(=C\\c2cccc3nnnc23)s1', 'c1ccc(C2(c3ccccc3)c3cc4c(cc3-c3sc5ccsc5c32)C(c2ccccc2)(c2ccccc2)c2c-4sc3ccsc23)cc1']","[0, 0, 0, 3, 16, 24, 23, 5, 6, 18, 8, 1, 20, 21, 12, 22, 14]"
J61,BT-IC,-5.303333333333334,-3.151666666666667,-5.3775,-3.8575,1.0,CF,16.0,_,120,PEDOT:PSS,PDINO,9.56,9.54,0.87,67.1,"['CCCCCCCCCCCC', 'CCCCCCCCC(C)CCCCCC', 'SS', 'c1ccsc1', 'Cc1cccs1', 'Fc1cc2nnnc2cc1F', 'Cc1cc2cc3sccc3cc2s1']","['CCCCC(C)CC', 'O', 'N#CCC#N', 'O=C1CCc2ccccc21', 'C', 'CCCCCC', 'c1ccc(C2(c3ccccc3)c3ccsc3-c3sc4cc5c6c(sc5cc4c32)-c2sccc2C6(c2ccccc2)c2ccccc2)cc1']","['CCCCCCCCCCCC', 'CCCCCCCCC(C)CCCCCC', 'SS', 'c1ccsc1', 'Cc1cccs1', 'Fc1cc2nnnc2cc1F', 'Cc1cc2cc3sccc3cc2s1', '.', 'CCCCC(C)CC', 'O', 'N#CCC#N', 'O=C1CCc2ccccc21', 'C', 'CCCCCC', 'c1ccc(C2(c3ccccc3)c3ccsc3-c3sc4cc5c6c(sc5cc4c32)-c2sccc2C6(c2ccccc2)c2ccccc2)cc1']","[0, 0, 25, 16, 26, 6, 5, 18, 8, 1, 3, 2, 9, 10, 11, 12, 27]"
J71,BT-IC,-5.353333333333333,-3.4318181818181825,-5.3775,-3.8575,0.667,CF,16.0,_,120,PEDOT:PSS,PDINO,10.46,10.5,0.9,65.7,"['CCCCCCCCC(C)CCCCCC', 'Cc1cccs1', 'CCC[Si](CCC)(CCC)c1cccs1', 'c1ccsc1', 'Fc1cc2nnnc2cc1F', 'Cc1cc2cc3sccc3cc2s1']","['CCCCC(C)CC', 'O', 'N#CCC#N', 'O=C1CCc2ccccc21', 'C', 'CCCCCC', 'c1ccc(C2(c3ccccc3)c3ccsc3-c3sc4cc5c6c(sc5cc4c32)-c2sccc2C6(c2ccccc2)c2ccccc2)cc1']","['CCCCCCCCC(C)CCCCCC', 'Cc1cccs1', 'CCC[Si](CCC)(CCC)c1cccs1', 'c1ccsc1', 'Fc1cc2nnnc2cc1F', 'Cc1cc2cc3sccc3cc2s1', '.', 'CCCCC(C)CC', 'O', 'N#CCC#N', 'O=C1CCc2ccccc21', 'C', 'CCCCCC', 'c1ccc(C2(c3ccccc3)c3ccsc3-c3sc4cc5c6c(sc5cc4c32)-c2sccc2C6(c2ccccc2)c2ccccc2)cc1']","[0, 0, 0, 16, 5, 17, 6, 18, 8, 1, 3, 2, 9, 10, 11, 12, 27]"
J51,IDIC,-5.24,-3.056666666666666,-5.706,-4.002666666666667,1.0,CF,12.0,_,25,MoOx,ZnO,6.94,6.43,0.796,66.0,"['CCCCCCCC', 'CCCCCCCCC(C)CCCCCC', 'CCCCCCCCC(C)CCCCCC', 'c1ccsc1', 'Cc1cccs1', 'Fc1cc2nnnc2cc1F', 'Cc1cc2cc3sccc3cc2s1']","['N#CCC#N', 'O=C1CCc2ccccc21', 'C', 'CCCCCCC1(CCCCCC)c2cc3c(cc2-c2sccc21)C(CCCCCC)(CCCCCC)c1ccsc1-3']","['CCCCCCCC', 'CCCCCCCCC(C)CCCCCC', 'CCCCCCCCC(C)CCCCCC', 'c1ccsc1', 'Cc1cccs1', 'Fc1cc2nnnc2cc1F', 'Cc1cc2cc3sccc3cc2s1', '.', 'N#CCC#N', 'O=C1CCc2ccccc21', 'C', 'CCCCCCC1(CCCCCC)c2cc3c(cc2-c2sccc21)C(CCCCCC)(CCCCCC)c1ccsc1-3']","[0, 0, 0, 0, 0, 20, 16, 16, 6, 5, 18, 8, 1, 9, 10, 11, 28]"
PDBT-T1,IDIC,-5.36,-3.43,-5.706,-4.002666666666667,1.0,CF,12.0,DIO,25,MoOx,ZnO,10.37,10.37,0.834,73.2,"['CCCCCCCC', 'CCCCC(C)CC', 'Cc1cccs1', 'c1ccsc1', 'O=C1c2cscc2C(=O)c2cscc21', 'Cc1cc2sc3cc4c(cc3c2s1)sc1ccsc14']","['N#CCC#N', 'O=C1CCc2ccccc21', 'C', 'CCCCCCC1(CCCCCC)c2cc3c(cc2-c2sccc21)C(CCCCCC)(CCCCCC)c1ccsc1-3']","['CCCCCCCC', 'CCCCC(C)CC', 'Cc1cccs1', 'c1ccsc1', 'O=C1c2cscc2C(=O)c2cscc21', 'Cc1cc2sc3cc4c(cc3c2s1)sc1ccsc14', '.', 'N#CCC#N', 'O=C1CCc2ccccc21', 'C', 'CCCCCCC1(CCCCCC)c2cc3c(cc2-c2sccc21)C(CCCCCC)(CCCCCC)c1ccsc1-3']","[0, 0, 0, 0, 0, 0, 20, 3, 5, 6, 29, 30, 1, 9, 10, 11, 28]"
PDCBT,IDIC,-5.313333333333333,-3.1,-5.706,-4.002666666666667,1.0,CF,12.0,_,25,MoOx,ZnO,6.28,5.9,0.814,64.1,"['OS', 'CCCCCCC(C)CCCC', 'C=O', 'Cc1cccs1', 'c1ccsc1']","['N#CCC#N', 'O=C1CCc2ccccc21', 'C', 'CCCCCCC1(CCCCCC)c2cc3c(cc2-c2sccc21)C(CCCCCC)(CCCCCC)c1ccsc1-3']","['OS', 'CCCCCCC(C)CCCC', 'C=O', 'Cc1cccs1', 'c1ccsc1', '.', 'N#CCC#N', 'O=C1CCc2ccccc21', 'C', 'CCCCCCC1(CCCCCC)c2cc3c(cc2-c2sccc21)C(CCCCCC)(CCCCCC)c1ccsc1-3']","[0, 0, 0, 0, 0, 0, 0, 31, 32, 4, 5, 6, 1, 9, 10, 11, 28]"
PTB7-Th,IDIC,-5.213181818181817,-3.541944444444445,-5.706,-4.002666666666667,1.0,CF,12.0,_,25,MoOx,ZnO,5.24,4.93,0.806,56.1,"['O', 'CCCCC(C)CC', 'C=O', 'CCCCC(C)CC', 'Cc1scc2scc(F)c12', 'c1ccsc1', 'Cc1cc2cc3sccc3cc2s1']","['N#CCC#N', 'O=C1CCc2ccccc21', 'C', 'CCCCCCC1(CCCCCC)c2cc3c(cc2-c2sccc21)C(CCCCCC)(CCCCCC)c1ccsc1-3']","['O', 'CCCCC(C)CC', 'C=O', 'CCCCC(C)CC', 'Cc1scc2scc(F)c12', 'c1ccsc1', 'Cc1cc2cc3sccc3cc2s1', '.', 'N#CCC#N', 'O=C1CCc2ccccc21', 'C', 'CCCCCCC1(CCCCCC)c2cc3c(cc2-c2sccc21)C(CCCCCC)(CCCCCC)c1ccsc1-3']","[0, 0, 0, 0, 0, 2, 3, 4, 3, 33, 6, 8, 1, 9, 10, 11, 28]"
J71,IDTT-BH,-5.353333333333333,-3.4318181818181825,-5.24,-3.86,0.714,CF,12.0,_,25,PEDOT:PSS,PDINO,11.05,11.05,0.9,69.1,"['CCCCCCCCC(C)CCCCCC', 'Cc1cccs1', 'CCC[Si](CCC)(CCC)c1cccs1', 'c1ccsc1', 'Fc1cc2nnnc2cc1F', 'Cc1cc2cc3sccc3cc2s1']","['CCCCCCC(C)CCCC', 'N#CCC#N', 'O=C1CCc2cc3ccccc3cc21', 'C', 'S', 'c1ccc(C2(c3ccccc3)c3cc4c(cc3-c3sc5ccsc5c32)C(c2ccccc2)(c2ccccc2)c2c-4sc3ccsc23)cc1']","['CCCCCCCCC(C)CCCCCC', 'Cc1cccs1', 'CCC[Si](CCC)(CCC)c1cccs1', 'c1ccsc1', 'Fc1cc2nnnc2cc1F', 'Cc1cc2cc3sccc3cc2s1', '.', 'CCCCCCC(C)CCCC', 'N#CCC#N', 'O=C1CCc2cc3ccccc3cc21', 'C', 'S', 'c1ccc(C2(c3ccccc3)c3cc4c(cc3-c3sc5ccsc5c32)C(c2ccccc2)(c2ccccc2)c2c-4sc3ccsc23)cc1']","[0, 0, 0, 0, 16, 5, 17, 6, 18, 8, 1, 32, 9, 37, 11, 24, 14]"
PBDB-T,IDTT-BH,-5.297714285714285,-3.4170000000000003,-5.24,-3.86,1.25,CF,9.0,_,100,PEDOT:PSS,PDINO,9.92,9.92,0.85,69.2,"['CCCCC(C)CC', 'Cc1cccs1', 'c1ccsc1', 'O=C1c2cscc2C(=O)c2cscc21', 'Cc1cc2cc3sccc3cc2s1']","['CCCCCCC(C)CCCC', 'N#CCC#N', 'O=C1CCc2cc3ccccc3cc21', 'C', 'S', 'c1ccc(C2(c3ccccc3)c3cc4c(cc3-c3sc5ccsc5c32)C(c2ccccc2)(c2ccccc2)c2c-4sc3ccsc23)cc1']","['CCCCC(C)CC', 'Cc1cccs1', 'c1ccsc1', 'O=C1c2cscc2C(=O)c2cscc21', 'Cc1cc2cc3sccc3cc2s1', '.', 'CCCCCCC(C)CCCC', 'N#CCC#N', 'O=C1CCc2cc3ccccc3cc21', 'C', 'S', 'c1ccc(C2(c3ccccc3)c3cc4c(cc3-c3sc5ccsc5c32)C(c2ccccc2)(c2ccccc2)c2c-4sc3ccsc23)cc1']","[0, 0, 0, 0, 0, 3, 5, 6, 29, 8, 1, 32, 9, 37, 11, 24, 14]"
J71,IDTT-OBH,-5.353333333333333,-3.4318181818181825,-5.41,-3.86,1.0,CF,10.0,_,25,PEDOT:PSS,PDINO,8.02,8.28,0.92,61.0,"['CCCCCCCCC(C)CCCCCC', 'Cc1cccs1', 'CCC[Si](CCC)(CCC)c1cccs1', 'c1ccsc1', 'Fc1cc2nnnc2cc1F', 'Cc1cc2cc3sccc3cc2s1']","['OS', 'CCCCCCC(C)CCCC', 'N#CCC#N', 'O=C1CCc2cc3ccccc3cc21', 'C', 'c1ccc(C2(c3ccccc3)c3cc4c(cc3-c3sc5ccsc5c32)C(c2ccccc2)(c2ccccc2)c2c-4sc3ccsc23)cc1']","['CCCCCCCCC(C)CCCCCC', 'Cc1cccs1', 'CCC[Si](CCC)(CCC)c1cccs1', 'c1ccsc1', 'Fc1cc2nnnc2cc1F', 'Cc1cc2cc3sccc3cc2s1', '.', 'OS', 'CCCCCCC(C)CCCC', 'N#CCC#N', 'O=C1CCc2cc3ccccc3cc21', 'C', 'c1ccc(C2(c3ccccc3)c3cc4c(cc3-c3sc5ccsc5c32)C(c2ccccc2)(c2ccccc2)c2c-4sc3ccsc23)cc1']","[0, 0, 0, 0, 16, 5, 17, 6, 18, 8, 1, 31, 32, 9, 37, 11, 14]"
PBDB-T,IDTT-OBH,-5.297714285714285,-3.4170000000000003,-5.41,-3.86,1.25,CF,9.0,_,110,PEDOT:PSS,PDINO,10.93,10.94,0.87,72.0,"['CCCCC(C)CC', 'Cc1cccs1', 'c1ccsc1', 'O=C1c2cscc2C(=O)c2cscc21', 'Cc1cc2cc3sccc3cc2s1']","['OS', 'CCCCCCC(C)CCCC', 'N#CCC#N', 'O=C1CCc2cc3ccccc3cc21', 'C', 'c1ccc(C2(c3ccccc3)c3cc4c(cc3-c3sc5ccsc5c32)C(c2ccccc2)(c2ccccc2)c2c-4sc3ccsc23)cc1']","['CCCCC(C)CC', 'Cc1cccs1', 'c1ccsc1', 'O=C1c2cscc2C(=O)c2cscc21', 'Cc1cc2cc3sccc3cc2s1', '.', 'OS', 'CCCCCCC(C)CCCC', 'N#CCC#N', 'O=C1CCc2cc3ccccc3cc21', 'C', 'c1ccc(C2(c3ccccc3)c3cc4c(cc3-c3sc5ccsc5c32)C(c2ccccc2)(c2ccccc2)c2c-4sc3ccsc23)cc1']","[0, 0, 0, 0, 0, 3, 5, 6, 29, 8, 1, 31, 32, 9, 37, 11, 14]"
PDCBT,IDTT-OBH,-5.313333333333333,-3.1,-5.41,-3.86,0.833,CF,11.0,_,120,PEDOT:PSS,PDINO,8.24,8.24,0.91,64.8,"['OS', 'CCCCCCC(C)CCCC', 'C=O', 'Cc1cccs1', 'c1ccsc1']","['OS', 'CCCCCCC(C)CCCC', 'N#CCC#N', 'O=C1CCc2cc3ccccc3cc21', 'C', 'c1ccc(C2(c3ccccc3)c3cc4c(cc3-c3sc5ccsc5c32)C(c2ccccc2)(c2ccccc2)c2c-4sc3ccsc23)cc1']","['OS', 'CCCCCCC(C)CCCC', 'C=O', 'Cc1cccs1', 'c1ccsc1', '.', 'OS', 'CCCCCCC(C)CCCC', 'N#CCC#N', 'O=C1CCc2cc3ccccc3cc21', 'C', 'c1ccc(C2(c3ccccc3)c3cc4c(cc3-c3sc5ccsc5c32)C(c2ccccc2)(c2ccccc2)c2c-4sc3ccsc23)cc1']","[0, 0, 0, 0, 0, 31, 32, 4, 5, 6, 1, 31, 32, 9, 37, 11, 14]"
J52,IEICO-4Cl,-5.218571428571429,-3.341428571428572,-5.56,-4.23,0.667,CB,10.0,DIO,150,PEDOT:PSS,PFN-Br,10.1,10.11,0.7,60.7,"['CCCCCCCCC(C)CCCCCC', 'CCCCC(C)CC', 'CCCCC(C)CC', 'c1ccsc1', 'Cc1cccs1', 'Fc1cc2nnnc2cc1F', 'Cc1cc2cc3sccc3cc2s1']","['CCCCC(C)CC', 'O', 'N#CCC#N', 'O=C1CCc2cc(Cl)c(Cl)cc21', 'C', 'CCCCCC', 'c1ccsc1', 'c1ccc(C2(c3ccccc3)c3cc4c(cc3-c3sccc32)C(c2ccccc2)(c2ccccc2)c2ccsc2-4)cc1']","['CCCCCCCCC(C)CCCCCC', 'CCCCC(C)CC', 'CCCCC(C)CC', 'c1ccsc1', 'Cc1cccs1', 'Fc1cc2nnnc2cc1F', 'Cc1cc2cc3sccc3cc2s1', '.', 'CCCCC(C)CC', 'O', 'N#CCC#N', 'O=C1CCc2cc(Cl)c(Cl)cc21', 'C', 'CCCCCC', 'c1ccsc1', 'c1ccc(C2(c3ccccc3)c3cc4c(cc3-c3sccc32)C(c2ccccc2)(c2ccccc2)c2ccsc2-4)cc1']","[0, 16, 3, 3, 6, 5, 18, 8, 1, 3, 2, 9, 38, 11, 12, 6, 36]"
PBDB-T,IEICO-4Cl,-5.297714285714285,-3.4170000000000003,-5.56,-4.23,1.0,CB,10.0,DIO,150,PEDOT:PSS,PFN-Br,9.67,9.67,0.744,62.5,"['CCCCC(C)CC', 'Cc1cccs1', 'c1ccsc1', 'O=C1c2cscc2C(=O)c2cscc21', 'Cc1cc2cc3sccc3cc2s1']","['CCCCC(C)CC', 'O', 'N#CCC#N', 'O=C1CCc2cc(Cl)c(Cl)cc21', 'C', 'CCCCCC', 'c1ccsc1', 'c1ccc(C2(c3ccccc3)c3cc4c(cc3-c3sccc32)C(c2ccccc2)(c2ccccc2)c2ccsc2-4)cc1']","['CCCCC(C)CC', 'Cc1cccs1', 'c1ccsc1', 'O=C1c2cscc2C(=O)c2cscc21', 'Cc1cc2cc3sccc3cc2s1', '.', 'CCCCC(C)CC', 'O', 'N#CCC#N', 'O=C1CCc2cc(Cl)c(Cl)cc21', 'C', 'CCCCCC', 'c1ccsc1', 'c1ccc(C2(c3ccccc3)c3cc4c(cc3-c3sccc32)C(c2ccccc2)(c2ccccc2)c2ccsc2-4)cc1']","[0, 0, 0, 3, 5, 6, 29, 8, 1, 3, 2, 9, 38, 11, 12, 6, 36]"
PTB7-Th,IEICO-4Cl,-5.213181818181817,-3.541944444444445,-5.56,-4.23,0.667,CB,10.0,DIO,150,PEDOT:PSS,PFN-Br,10.3,10.28,0.727,62.0,"['O', 'CCCCC(C)CC', 'C=O', 'CCCCC(C)CC', 'Cc1scc2scc(F)c12', 'c1ccsc1', 'Cc1cc2cc3sccc3cc2s1']","['CCCCC(C)CC', 'O', 'N#CCC#N', 'O=C1CCc2cc(Cl)c(Cl)cc21', 'C', 'CCCCCC', 'c1ccsc1', 'c1ccc(C2(c3ccccc3)c3cc4c(cc3-c3sccc32)C(c2ccccc2)(c2ccccc2)c2ccsc2-4)cc1']","['O', 'CCCCC(C)CC', 'C=O', 'CCCCC(C)CC', 'Cc1scc2scc(F)c12', 'c1ccsc1', 'Cc1cc2cc3sccc3cc2s1', '.', 'CCCCC(C)CC', 'O', 'N#CCC#N', 'O=C1CCc2cc(Cl)c(Cl)cc21', 'C', 'CCCCCC', 'c1ccsc1', 'c1ccc(C2(c3ccccc3)c3cc4c(cc3-c3sccc32)C(c2ccccc2)(c2ccccc2)c2ccsc2-4)cc1']","[0, 2, 3, 4, 3, 33, 6, 8, 1, 3, 2, 9, 38, 11, 12, 6, 36]"
J52,IEICO-4F,-5.218571428571429,-3.341428571428572,-5.309971428571429,-3.851028571428572,0.769,CB,24.0,_,130,MoOx,ZnO,8.2,8.2,0.704,56.9,"['CCCCCCCCC(C)CCCCCC', 'CCCCC(C)CC', 'CCCCC(C)CC', 'c1ccsc1', 'Cc1cccs1', 'Fc1cc2nnnc2cc1F', 'Cc1cc2cc3sccc3cc2s1']","['CCCCC(C)CC', 'O', 'N#CCC#N', 'O=C1CCc2cc(F)c(F)cc21', 'C', 'CCCCCC', 'c1ccsc1', 'c1ccc(C2(c3ccccc3)c3cc4c(cc3-c3sccc32)C(c2ccccc2)(c2ccccc2)c2ccsc2-4)cc1']","['CCCCCCCCC(C)CCCCCC', 'CCCCC(C)CC', 'CCCCC(C)CC', 'c1ccsc1', 'Cc1cccs1', 'Fc1cc2nnnc2cc1F', 'Cc1cc2cc3sccc3cc2s1', '.', 'CCCCC(C)CC', 'O', 'N#CCC#N', 'O=C1CCc2cc(F)c(F)cc21', 'C', 'CCCCCC', 'c1ccsc1', 'c1ccc(C2(c3ccccc3)c3cc4c(cc3-c3sccc32)C(c2ccccc2)(c2ccccc2)c2ccsc2-4)cc1']","[0, 16, 3, 3, 6, 5, 18, 8, 1, 3, 2, 9, 39, 11, 12, 6, 36]"
J52,i-IEICO-4F,-5.218571428571429,-3.341428571428572,-5.0183,-3.3307,1.0,CB,24.0,_,130,MoOx,ZnO,13.18,13.18,0.849,67.9,"['CCCCCCCCC(C)CCCCCC', 'CCCCC(C)CC', 'CCCCC(C)CC', 'c1ccsc1', 'Cc1cccs1', 'Fc1cc2nnnc2cc1F', 'Cc1cc2cc3sccc3cc2s1']","['CCCCC(C)CC', 'O', 'N#CCC#N', 'O=C1CCc2cc(F)c(F)cc21', 'C', 'CCCCCC', 'c1ccsc1', 'c1ccc(C2(c3ccccc3)c3cc4c(cc3-c3sccc32)C(c2ccccc2)(c2ccccc2)c2ccsc2-4)cc1']","['CCCCCCCCC(C)CCCCCC', 'CCCCC(C)CC', 'CCCCC(C)CC', 'c1ccsc1', 'Cc1cccs1', 'Fc1cc2nnnc2cc1F', 'Cc1cc2cc3sccc3cc2s1', '.', 'CCCCC(C)CC', 'O', 'N#CCC#N', 'O=C1CCc2cc(F)c(F)cc21', 'C', 'CCCCCC', 'c1ccsc1', 'c1ccc(C2(c3ccccc3)c3cc4c(cc3-c3sccc32)C(c2ccccc2)(c2ccccc2)c2ccsc2-4)cc1']","[0, 16, 3, 3, 6, 5, 18, 8, 1, 3, 2, 9, 39, 11, 12, 6, 36]"
J40,ITIC,-5.4,-2.9,-5.57675,-3.918163265306122,1.0,CF,16.0,_,120,PEDOT:PSS,PDINO,6.48,6.52,0.89,60.13,"['CCCCCCCCCCC(C)CCCCCCCC', 'O', 'CCCCC(C)CC', 'Cc1cc2cc3sccc3cc2s1', 'Cc1cccs1', 'c1ccsc1', 'Fc1cc2nnnc2cc1F']","['N#CCC#N', 'O=C1CCc2ccccc21', 'C', 'CCCCCC', 'c1ccc(C2(c3ccccc3)c3cc4c(cc3-c3sc5ccsc5c32)C(c2ccccc2)(c2ccccc2)c2c-4sc3ccsc23)cc1']","['CCCCCCCCCCC(C)CCCCCCCC', 'O', 'CCCCC(C)CC', 'Cc1cc2cc3sccc3cc2s1', 'Cc1cccs1', 'c1ccsc1', 'Fc1cc2nnnc2cc1F', '.', 'N#CCC#N', 'O=C1CCc2ccccc21', 'C', 'CCCCCC', 'c1ccc(C2(c3ccccc3)c3cc4c(cc3-c3sc5ccsc5c32)C(c2ccccc2)(c2ccccc2)c2c-4sc3ccsc23)cc1']","[0, 0, 0, 0, 42, 2, 3, 8, 5, 6, 18, 1, 9, 10, 11, 12, 14]"
J50,ITIC,-5.13,-3.16,-5.57675,-3.918163265306122,0.5,CF,18.0,_,150,PEDOT:PSS,PDINO,4.8,4.87,0.71,53.0,"['CCCCCCCC', 'CCCCCCCCC(C)CCCCCC', 'CCCCCCCCC(C)CCCCCC', 'c1ccsc1', 'Cc1cccs1', 'c1ccc2nnnc2c1', 'Cc1cc2cc3sccc3cc2s1']","['N#CCC#N', 'O=C1CCc2ccccc21', 'C', 'CCCCCC', 'c1ccc(C2(c3ccccc3)c3cc4c(cc3-c3sc5ccsc5c32)C(c2ccccc2)(c2ccccc2)c2c-4sc3ccsc23)cc1']","['CCCCCCCC', 'CCCCCCCCC(C)CCCCCC', 'CCCCCCCCC(C)CCCCCC', 'c1ccsc1', 'Cc1cccs1', 'c1ccc2nnnc2c1', 'Cc1cc2cc3sccc3cc2s1', '.', 'N#CCC#N', 'O=C1CCc2ccccc21', 'C', 'CCCCCC', 'c1ccc(C2(c3ccccc3)c3cc4c(cc3-c3sc5ccsc5c32)C(c2ccccc2)(c2ccccc2)c2c-4sc3ccsc23)cc1']","[0, 0, 0, 0, 20, 16, 16, 6, 5, 43, 8, 1, 9, 10, 11, 12, 14]"
J51,ITIC,-5.24,-3.056666666666666,-5.57675,-3.918163265306122,0.5,CF,18.0,_,150,PEDOT:PSS,PDINO,9.26,9.32,0.82,69.0,"['CCCCCCCC', 'CCCCCCCCC(C)CCCCCC', 'CCCCCCCCC(C)CCCCCC', 'c1ccsc1', 'Cc1cccs1', 'Fc1cc2nnnc2cc1F', 'Cc1cc2cc3sccc3cc2s1']","['N#CCC#N', 'O=C1CCc2ccccc21', 'C', 'CCCCCC', 'c1ccc(C2(c3ccccc3)c3cc4c(cc3-c3sc5ccsc5c32)C(c2ccccc2)(c2ccccc2)c2c-4sc3ccsc23)cc1']","['CCCCCCCC', 'CCCCCCCCC(C)CCCCCC', 'CCCCCCCCC(C)CCCCCC', 'c1ccsc1', 'Cc1cccs1', 'Fc1cc2nnnc2cc1F', 'Cc1cc2cc3sccc3cc2s1', '.', 'N#CCC#N', 'O=C1CCc2ccccc21', 'C', 'CCCCCC', 'c1ccc(C2(c3ccccc3)c3cc4c(cc3-c3sc5ccsc5c32)C(c2ccccc2)(c2ccccc2)c2c-4sc3ccsc23)cc1']","[0, 0, 0, 0, 20, 16, 16, 6, 5, 18, 8, 1, 9, 10, 11, 12, 14]"
J52,ITIC,-5.218571428571429,-3.341428571428572,-5.57675,-3.918163265306122,1.0,CF,20.0,_,100,PEDOT:PSS,PDINO,5.51,5.53,0.73,57.8,"['CCCCCCCCC(C)CCCCCC', 'CCCCC(C)CC', 'CCCCC(C)CC', 'c1ccsc1', 'Cc1cccs1', 'Fc1cc2nnnc2cc1F', 'Cc1cc2cc3sccc3cc2s1']","['N#CCC#N', 'O=C1CCc2ccccc21', 'C', 'CCCCCC', 'c1ccc(C2(c3ccccc3)c3cc4c(cc3-c3sc5ccsc5c32)C(c2ccccc2)(c2ccccc2)c2c-4sc3ccsc23)cc1']","['CCCCCCCCC(C)CCCCCC', 'CCCCC(C)CC', 'CCCCC(C)CC', 'c1ccsc1', 'Cc1cccs1', 'Fc1cc2nnnc2cc1F', 'Cc1cc2cc3sccc3cc2s1', '.', 'N#CCC#N', 'O=C1CCc2ccccc21', 'C', 'CCCCCC', 'c1ccc(C2(c3ccccc3)c3cc4c(cc3-c3sc5ccsc5c32)C(c2ccccc2)(c2ccccc2)c2c-4sc3ccsc23)cc1']","[0, 0, 0, 0, 16, 3, 3, 6, 5, 18, 8, 1, 9, 10, 11, 12, 14]"
J60,ITIC,-5.32,-3.08,-5.57675,-3.918163265306122,1.0,CF,20.0,_,100,PEDOT:PSS,PDINO,8.97,8.97,0.91,60.38,"['CCCCC(C)CC', 'CCCCCCCCC(C)CCCCCC', 'S', 'c1ccsc1', 'Cc1cccs1', 'Fc1cc2nnnc2cc1F', 'Cc1cc2cc3sccc3cc2s1']","['N#CCC#N', 'O=C1CCc2ccccc21', 'C', 'CCCCCC', 'c1ccc(C2(c3ccccc3)c3cc4c(cc3-c3sc5ccsc5c32)C(c2ccccc2)(c2ccccc2)c2c-4sc3ccsc23)cc1']","['CCCCC(C)CC', 'CCCCCCCCC(C)CCCCCC', 'S', 'c1ccsc1', 'Cc1cccs1', 'Fc1cc2nnnc2cc1F', 'Cc1cc2cc3sccc3cc2s1', '.', 'N#CCC#N', 'O=C1CCc2ccccc21', 'C', 'CCCCCC', 'c1ccc(C2(c3ccccc3)c3cc4c(cc3-c3sc5ccsc5c32)C(c2ccccc2)(c2ccccc2)c2c-4sc3ccsc23)cc1']","[0, 0, 0, 0, 3, 16, 24, 6, 5, 18, 8, 1, 9, 10, 11, 12, 14]"
J61,ITIC,-5.303333333333334,-3.151666666666667,-5.57675,-3.918163265306122,1.0,CF,20.0,_,100,PEDOT:PSS,PDINO,9.53,9.54,0.89,61.48,"['CCCCCCCCCCCC', 'CCCCCCCCC(C)CCCCCC', 'SS', 'c1ccsc1', 'Cc1cccs1', 'Fc1cc2nnnc2cc1F', 'Cc1cc2cc3sccc3cc2s1']","['N#CCC#N', 'O=C1CCc2ccccc21', 'C', 'CCCCCC', 'c1ccc(C2(c3ccccc3)c3cc4c(cc3-c3sc5ccsc5c32)C(c2ccccc2)(c2ccccc2)c2c-4sc3ccsc23)cc1']","['CCCCCCCCCCCC', 'CCCCCCCCC(C)CCCCCC', 'SS', 'c1ccsc1', 'Cc1cccs1', 'Fc1cc2nnnc2cc1F', 'Cc1cc2cc3sccc3cc2s1', '.', 'N#CCC#N', 'O=C1CCc2ccccc21', 'C', 'CCCCCC', 'c1ccc(C2(c3ccccc3)c3cc4c(cc3-c3sc5ccsc5c32)C(c2ccccc2)(c2ccccc2)c2c-4sc3ccsc23)cc1']","[0, 0, 0, 0, 25, 16, 26, 6, 5, 18, 8, 1, 9, 10, 11, 12, 14]"
J61,ITIC,-5.303333333333334,-3.151666666666667,-5.57675,-3.918163265306122,1.0,CF,20.0,_,130,PEDOT:PSS,PDINO,10.57,10.57,0.898,65.49,"['CCCCCCCCCCCC', 'CCCCCCCCC(C)CCCCCC', 'SS', 'c1ccsc1', 'Cc1cccs1', 'Fc1cc2nnnc2cc1F', 'Cc1cc2cc3sccc3cc2s1']","['N#CCC#N', 'O=C1CCc2ccccc21', 'C', 'CCCCCC', 'c1ccc(C2(c3ccccc3)c3cc4c(cc3-c3sc5ccsc5c32)C(c2ccccc2)(c2ccccc2)c2c-4sc3ccsc23)cc1']","['CCCCCCCCCCCC', 'CCCCCCCCC(C)CCCCCC', 'SS', 'c1ccsc1', 'Cc1cccs1', 'Fc1cc2nnnc2cc1F', 'Cc1cc2cc3sccc3cc2s1', '.', 'N#CCC#N', 'O=C1CCc2ccccc21', 'C', 'CCCCCC', 'c1ccc(C2(c3ccccc3)c3cc4c(cc3-c3sc5ccsc5c32)C(c2ccccc2)(c2ccccc2)c2c-4sc3ccsc23)cc1']","[0, 0, 0, 0, 25, 16, 26, 6, 5, 18, 8, 1, 9, 10, 11, 12, 14]"