Donor,Acceptor,HOMO_D_eV,LUMO_D_eV,HOMO_A_eV,LUMO_A_eV,D_A_ratio_m_m,solvent,solvent_additive,annealing_temperature,hole_contact_layer,electron_contact_layer,PCE_percent,calc_PCE_percent,Voc_V,FF_percent,Donor_BRICS,Acceptor_BRICS,DA_pair_BRICS,DA_tokenized_BRICS
PTB7-Th,IFT-M,-5.204782608695651,-3.5391891891891896,-5.83,-3.65,0.667,DCB,CN,25.0,MoOx,ZnO,0.15,0.15,0.76,24.9,"[<rdkit.Chem.rdchem.Mol object at 0x7f5838ce2c00>, <rdkit.Chem.rdchem.Mol object at 0x7f5838ce3ed0>, <rdkit.Chem.rdchem.Mol object at 0x7f5838ce2a40>, <rdkit.Chem.rdchem.Mol object at 0x7f5838cec3c0>, <rdkit.Chem.rdchem.Mol object at 0x7f5838cec120>, <rdkit.Chem.rdchem.Mol object at 0x7f5838cec740>, <rdkit.Chem.rdchem.Mol object at 0x7f5838cecc10>]","[<rdkit.Chem.rdchem.Mol object at 0x7f5838ce3a70>, <rdkit.Chem.rdchem.Mol object at 0x7f5838ceccf0>, <rdkit.Chem.rdchem.Mol object at 0x7f5838cec890>, <rdkit.Chem.rdchem.Mol object at 0x7f5838cec820>]","[<rdkit.Chem.rdchem.Mol object at 0x7f5838ce2c00>, <rdkit.Chem.rdchem.Mol object at 0x7f5838ce3ed0>, <rdkit.Chem.rdchem.Mol object at 0x7f5838ce2a40>, <rdkit.Chem.rdchem.Mol object at 0x7f5838cec3c0>, <rdkit.Chem.rdchem.Mol object at 0x7f5838cec120>, <rdkit.Chem.rdchem.Mol object at 0x7f5838cec740>, <rdkit.Chem.rdchem.Mol object at 0x7f5838cecc10>, '.', <rdkit.Chem.rdchem.Mol object at 0x7f5838ce3a70>, <rdkit.Chem.rdchem.Mol object at 0x7f5838ceccf0>, <rdkit.Chem.rdchem.Mol object at 0x7f5838cec890>, <rdkit.Chem.rdchem.Mol object at 0x7f5838cec820>]","[0, 0, 0, 0, 0, 5955, 5956, 5957, 5958, 5959, 5960, 5961, 1, 5962, 5963, 5964, 5965]"
PTB7-Th,IFT-IC,-5.204782608695651,-3.5391891891891896,-5.7,-3.87,0.667,DCB,CN,25.0,MoOx,ZnO,4.14,4.14,1.03,50.3,"[<rdkit.Chem.rdchem.Mol object at 0x7f5838cec190>, <rdkit.Chem.rdchem.Mol object at 0x7f5838ceca50>, <rdkit.Chem.rdchem.Mol object at 0x7f5838cec970>, <rdkit.Chem.rdchem.Mol object at 0x7f5838cec9e0>, <rdkit.Chem.rdchem.Mol object at 0x7f5838cec6d0>, <rdkit.Chem.rdchem.Mol object at 0x7f5838cec430>, <rdkit.Chem.rdchem.Mol object at 0x7f5838ced0e0>]","[<rdkit.Chem.rdchem.Mol object at 0x7f5838cece40>, <rdkit.Chem.rdchem.Mol object at 0x7f5838cec200>, <rdkit.Chem.rdchem.Mol object at 0x7f5838cec660>, <rdkit.Chem.rdchem.Mol object at 0x7f5838cec270>, <rdkit.Chem.rdchem.Mol object at 0x7f5838cecb30>]","[<rdkit.Chem.rdchem.Mol object at 0x7f5838cec190>, <rdkit.Chem.rdchem.Mol object at 0x7f5838ceca50>, <rdkit.Chem.rdchem.Mol object at 0x7f5838cec970>, <rdkit.Chem.rdchem.Mol object at 0x7f5838cec9e0>, <rdkit.Chem.rdchem.Mol object at 0x7f5838cec6d0>, <rdkit.Chem.rdchem.Mol object at 0x7f5838cec430>, <rdkit.Chem.rdchem.Mol object at 0x7f5838ced0e0>, '.', <rdkit.Chem.rdchem.Mol object at 0x7f5838cece40>, <rdkit.Chem.rdchem.Mol object at 0x7f5838cec200>, <rdkit.Chem.rdchem.Mol object at 0x7f5838cec660>, <rdkit.Chem.rdchem.Mol object at 0x7f5838cec270>, <rdkit.Chem.rdchem.Mol object at 0x7f5838cecb30>]","[0, 0, 0, 0, 5966, 5967, 5968, 5969, 5970, 5971, 5972, 1, 5973, 5974, 5975, 5976, 5977]"
PTB7-Th,IFT-TH,-5.204782608695651,-3.5391891891891896,-5.85,-3.67,0.667,DCB,CN,25.0,MoOx,ZnO,7.16,7.15,0.9,60.2,"[<rdkit.Chem.rdchem.Mol object at 0x7f5838ced000>, <rdkit.Chem.rdchem.Mol object at 0x7f5838ceceb0>, <rdkit.Chem.rdchem.Mol object at 0x7f5838cecf90>, <rdkit.Chem.rdchem.Mol object at 0x7f5838cecd60>, <rdkit.Chem.rdchem.Mol object at 0x7f5838cec900>, <rdkit.Chem.rdchem.Mol object at 0x7f5838ced070>, <rdkit.Chem.rdchem.Mol object at 0x7f5838ced620>]","[<rdkit.Chem.rdchem.Mol object at 0x7f5838ced5b0>, <rdkit.Chem.rdchem.Mol object at 0x7f5838ced460>, <rdkit.Chem.rdchem.Mol object at 0x7f5838ced3f0>, <rdkit.Chem.rdchem.Mol object at 0x7f5838cecdd0>, <rdkit.Chem.rdchem.Mol object at 0x7f5838cec350>]","[<rdkit.Chem.rdchem.Mol object at 0x7f5838ced000>, <rdkit.Chem.rdchem.Mol object at 0x7f5838ceceb0>, <rdkit.Chem.rdchem.Mol object at 0x7f5838cecf90>, <rdkit.Chem.rdchem.Mol object at 0x7f5838cecd60>, <rdkit.Chem.rdchem.Mol object at 0x7f5838cec900>, <rdkit.Chem.rdchem.Mol object at 0x7f5838ced070>, <rdkit.Chem.rdchem.Mol object at 0x7f5838ced620>, '.', <rdkit.Chem.rdchem.Mol object at 0x7f5838ced5b0>, <rdkit.Chem.rdchem.Mol object at 0x7f5838ced460>, <rdkit.Chem.rdchem.Mol object at 0x7f5838ced3f0>, <rdkit.Chem.rdchem.Mol object at 0x7f5838cecdd0>, <rdkit.Chem.rdchem.Mol object at 0x7f5838cec350>]","[0, 0, 0, 0, 5978, 5979, 5980, 5981, 5982, 5983, 5984, 1, 5985, 5986, 5987, 5988, 5989]"
PBDB-T,IT-M,-5.297714285714285,-3.4170000000000003,-5.513571428571429,-3.808,1.0,CB,DIO,25.0,PEDOT:PSS,PFN-Br,11.5,11.23,0.961,70.0,"[<rdkit.Chem.rdchem.Mol object at 0x7f5838ce2dc0>, <rdkit.Chem.rdchem.Mol object at 0x7f5838ced7e0>, <rdkit.Chem.rdchem.Mol object at 0x7f5838ced9a0>, <rdkit.Chem.rdchem.Mol object at 0x7f5838cedc40>, <rdkit.Chem.rdchem.Mol object at 0x7f5838cee650>]","[<rdkit.Chem.rdchem.Mol object at 0x7f5838cee880>, <rdkit.Chem.rdchem.Mol object at 0x7f5838cede00>, <rdkit.Chem.rdchem.Mol object at 0x7f5838ced8c0>, <rdkit.Chem.rdchem.Mol object at 0x7f5838cedd90>, <rdkit.Chem.rdchem.Mol object at 0x7f5838ced770>]","[<rdkit.Chem.rdchem.Mol object at 0x7f5838ce2dc0>, <rdkit.Chem.rdchem.Mol object at 0x7f5838ced7e0>, <rdkit.Chem.rdchem.Mol object at 0x7f5838ced9a0>, <rdkit.Chem.rdchem.Mol object at 0x7f5838cedc40>, <rdkit.Chem.rdchem.Mol object at 0x7f5838cee650>, '.', <rdkit.Chem.rdchem.Mol object at 0x7f5838cee880>, <rdkit.Chem.rdchem.Mol object at 0x7f5838cede00>, <rdkit.Chem.rdchem.Mol object at 0x7f5838ced8c0>, <rdkit.Chem.rdchem.Mol object at 0x7f5838cedd90>, <rdkit.Chem.rdchem.Mol object at 0x7f5838ced770>]","[0, 0, 0, 0, 0, 0, 5990, 5991, 5992, 5993, 5994, 1, 5995, 5996, 5997, 5998, 5999]"
PTB7-Th,4TIC,-5.204782608695651,-3.5391891891891896,-5.28,-3.87,0.5,CB,DIO,25.0,PEDOT:PSS,C60-bissalt,10.43,10.56,0.78,72.0,"[<rdkit.Chem.rdchem.Mol object at 0x7f5838ced540>, <rdkit.Chem.rdchem.Mol object at 0x7f5838ced4d0>, <rdkit.Chem.rdchem.Mol object at 0x7f5838cec510>, <rdkit.Chem.rdchem.Mol object at 0x7f5838cecf20>, <rdkit.Chem.rdchem.Mol object at 0x7f5838cee260>, <rdkit.Chem.rdchem.Mol object at 0x7f5838cecba0>, <rdkit.Chem.rdchem.Mol object at 0x7f5838cedf50>]","[<rdkit.Chem.rdchem.Mol object at 0x7f5838cee180>, <rdkit.Chem.rdchem.Mol object at 0x7f5838ced700>, <rdkit.Chem.rdchem.Mol object at 0x7f5838cedcb0>, <rdkit.Chem.rdchem.Mol object at 0x7f5838ced930>, <rdkit.Chem.rdchem.Mol object at 0x7f5838ced380>]","[<rdkit.Chem.rdchem.Mol object at 0x7f5838ced540>, <rdkit.Chem.rdchem.Mol object at 0x7f5838ced4d0>, <rdkit.Chem.rdchem.Mol object at 0x7f5838cec510>, <rdkit.Chem.rdchem.Mol object at 0x7f5838cecf20>, <rdkit.Chem.rdchem.Mol object at 0x7f5838cee260>, <rdkit.Chem.rdchem.Mol object at 0x7f5838cecba0>, <rdkit.Chem.rdchem.Mol object at 0x7f5838cedf50>, '.', <rdkit.Chem.rdchem.Mol object at 0x7f5838cee180>, <rdkit.Chem.rdchem.Mol object at 0x7f5838ced700>, <rdkit.Chem.rdchem.Mol object at 0x7f5838cedcb0>, <rdkit.Chem.rdchem.Mol object at 0x7f5838ced930>, <rdkit.Chem.rdchem.Mol object at 0x7f5838ced380>]","[0, 0, 0, 0, 6000, 6001, 6002, 6003, 6004, 6005, 6006, 1, 6007, 6008, 6009, 6010, 6011]"
PTB7-Th,ITIC,-5.204782608695651,-3.5391891891891896,-5.574146341463415,-3.915,0.8,CB,_,25.0,PEDOT:PSS,C60-bissalt,7.28,7.18,0.83,57.0,"[<rdkit.Chem.rdchem.Mol object at 0x7f5838cee8f0>, <rdkit.Chem.rdchem.Mol object at 0x7f5838ced230>, <rdkit.Chem.rdchem.Mol object at 0x7f5838cee500>, <rdkit.Chem.rdchem.Mol object at 0x7f5838ced310>, <rdkit.Chem.rdchem.Mol object at 0x7f5838cee6c0>, <rdkit.Chem.rdchem.Mol object at 0x7f5838ced1c0>, <rdkit.Chem.rdchem.Mol object at 0x7f5838ced690>]","[<rdkit.Chem.rdchem.Mol object at 0x7f5838cee030>, <rdkit.Chem.rdchem.Mol object at 0x7f5838cee420>, <rdkit.Chem.rdchem.Mol object at 0x7f5838cecac0>, <rdkit.Chem.rdchem.Mol object at 0x7f5838cec0b0>, <rdkit.Chem.rdchem.Mol object at 0x7f5838cee570>]","[<rdkit.Chem.rdchem.Mol object at 0x7f5838cee8f0>, <rdkit.Chem.rdchem.Mol object at 0x7f5838ced230>, <rdkit.Chem.rdchem.Mol object at 0x7f5838cee500>, <rdkit.Chem.rdchem.Mol object at 0x7f5838ced310>, <rdkit.Chem.rdchem.Mol object at 0x7f5838cee6c0>, <rdkit.Chem.rdchem.Mol object at 0x7f5838ced1c0>, <rdkit.Chem.rdchem.Mol object at 0x7f5838ced690>, '.', <rdkit.Chem.rdchem.Mol object at 0x7f5838cee030>, <rdkit.Chem.rdchem.Mol object at 0x7f5838cee420>, <rdkit.Chem.rdchem.Mol object at 0x7f5838cecac0>, <rdkit.Chem.rdchem.Mol object at 0x7f5838cec0b0>, <rdkit.Chem.rdchem.Mol object at 0x7f5838cee570>]","[0, 0, 0, 0, 6012, 6013, 6014, 6015, 6016, 6017, 6018, 1, 6019, 6020, 6021, 6022, 6023]"
TBF-BDD,ITIC,-5.37,-3.65,-5.574146341463415,-3.915,1.0,CF,_,110.0,PEDOT:PSS,PDINO,7.13,7.11,0.85,56.0,"[<rdkit.Chem.rdchem.Mol object at 0x7f5838ceec00>, <rdkit.Chem.rdchem.Mol object at 0x7f5838cee5e0>, <rdkit.Chem.rdchem.Mol object at 0x7f5838cee490>, <rdkit.Chem.rdchem.Mol object at 0x7f5838ced150>, <rdkit.Chem.rdchem.Mol object at 0x7f5838cee960>, <rdkit.Chem.rdchem.Mol object at 0x7f5838cede70>, <rdkit.Chem.rdchem.Mol object at 0x7f5838ceed50>, <rdkit.Chem.rdchem.Mol object at 0x7f5838ceeff0>]","[<rdkit.Chem.rdchem.Mol object at 0x7f5838ceeb20>, <rdkit.Chem.rdchem.Mol object at 0x7f5838ced2a0>, <rdkit.Chem.rdchem.Mol object at 0x7f5838cee2d0>, <rdkit.Chem.rdchem.Mol object at 0x7f5838cee110>, <rdkit.Chem.rdchem.Mol object at 0x7f5838ceeb90>]","[<rdkit.Chem.rdchem.Mol object at 0x7f5838ceec00>, <rdkit.Chem.rdchem.Mol object at 0x7f5838cee5e0>, <rdkit.Chem.rdchem.Mol object at 0x7f5838cee490>, <rdkit.Chem.rdchem.Mol object at 0x7f5838ced150>, <rdkit.Chem.rdchem.Mol object at 0x7f5838cee960>, <rdkit.Chem.rdchem.Mol object at 0x7f5838cede70>, <rdkit.Chem.rdchem.Mol object at 0x7f5838ceed50>, <rdkit.Chem.rdchem.Mol object at 0x7f5838ceeff0>, '.', <rdkit.Chem.rdchem.Mol object at 0x7f5838ceeb20>, <rdkit.Chem.rdchem.Mol object at 0x7f5838ced2a0>, <rdkit.Chem.rdchem.Mol object at 0x7f5838cee2d0>, <rdkit.Chem.rdchem.Mol object at 0x7f5838cee110>, <rdkit.Chem.rdchem.Mol object at 0x7f5838ceeb90>]","[0, 0, 0, 6024, 6025, 6026, 6027, 6028, 6029, 6030, 6031, 1, 6032, 6033, 6034, 6035, 6036]"
PBT,CzC6C8,-5.43,-3.65,-5.79,-3.79,0.333,CB,_,130.0,MoOx,ZnO,3.3,3.34,0.99,41.0,"[<rdkit.Chem.rdchem.Mol object at 0x7f5838cef3e0>, <rdkit.Chem.rdchem.Mol object at 0x7f5838ceece0>, <rdkit.Chem.rdchem.Mol object at 0x7f5838cef370>, <rdkit.Chem.rdchem.Mol object at 0x7f5838cef7d0>, <rdkit.Chem.rdchem.Mol object at 0x7f5838cefca0>, <rdkit.Chem.rdchem.Mol object at 0x7f5838cefe60>, <rdkit.Chem.rdchem.Mol object at 0x7f5838cefa00>, <rdkit.Chem.rdchem.Mol object at 0x7f5838ceff40>, <rdkit.Chem.rdchem.Mol object at 0x7f5838cef0d0>]","[<rdkit.Chem.rdchem.Mol object at 0x7f5838cee730>, <rdkit.Chem.rdchem.Mol object at 0x7f5838cef680>, <rdkit.Chem.rdchem.Mol object at 0x7f5838cedbd0>, <rdkit.Chem.rdchem.Mol object at 0x7f5838cefb50>, <rdkit.Chem.rdchem.Mol object at 0x7f5838cefd10>, <rdkit.Chem.rdchem.Mol object at 0x7f5838cefdf0>]","[<rdkit.Chem.rdchem.Mol object at 0x7f5838cef3e0>, <rdkit.Chem.rdchem.Mol object at 0x7f5838ceece0>, <rdkit.Chem.rdchem.Mol object at 0x7f5838cef370>, <rdkit.Chem.rdchem.Mol object at 0x7f5838cef7d0>, <rdkit.Chem.rdchem.Mol object at 0x7f5838cefca0>, <rdkit.Chem.rdchem.Mol object at 0x7f5838cefe60>, <rdkit.Chem.rdchem.Mol object at 0x7f5838cefa00>, <rdkit.Chem.rdchem.Mol object at 0x7f5838ceff40>, <rdkit.Chem.rdchem.Mol object at 0x7f5838cef0d0>, '.', <rdkit.Chem.rdchem.Mol object at 0x7f5838cee730>, <rdkit.Chem.rdchem.Mol object at 0x7f5838cef680>, <rdkit.Chem.rdchem.Mol object at 0x7f5838cedbd0>, <rdkit.Chem.rdchem.Mol object at 0x7f5838cefb50>, <rdkit.Chem.rdchem.Mol object at 0x7f5838cefd10>, <rdkit.Chem.rdchem.Mol object at 0x7f5838cefdf0>]","[0, 6050, 6051, 6052, 6053, 6054, 6055, 6056, 6057, 6058, 1, 6059, 6060, 6061, 6062, 6063, 6064]"
PBT,CZC8,-5.43,-3.65,-5.72,-3.74,0.333,CB,_,130.0,MoOx,ZnO,4.64,4.64,1.03,50.0,"[<rdkit.Chem.rdchem.Mol object at 0x7f5838cefa70>, <rdkit.Chem.rdchem.Mol object at 0x7f5838cefae0>, <rdkit.Chem.rdchem.Mol object at 0x7f5838cef5a0>, <rdkit.Chem.rdchem.Mol object at 0x7f5838cedaf0>, <rdkit.Chem.rdchem.Mol object at 0x7f5838ceeea0>, <rdkit.Chem.rdchem.Mol object at 0x7f5838cef530>, <rdkit.Chem.rdchem.Mol object at 0x7f5838cee810>, <rdkit.Chem.rdchem.Mol object at 0x7f5838cef610>, <rdkit.Chem.rdchem.Mol object at 0x7f5838ceeab0>]","[<rdkit.Chem.rdchem.Mol object at 0x7f5838ceda80>, <rdkit.Chem.rdchem.Mol object at 0x7f5838ceec70>, <rdkit.Chem.rdchem.Mol object at 0x7f5838cef920>, <rdkit.Chem.rdchem.Mol object at 0x7f5838cedd20>, <rdkit.Chem.rdchem.Mol object at 0x7f5838cefbc0>, <rdkit.Chem.rdchem.Mol object at 0x7f5838cee9d0>]","[<rdkit.Chem.rdchem.Mol object at 0x7f5838cefa70>, <rdkit.Chem.rdchem.Mol object at 0x7f5838cefae0>, <rdkit.Chem.rdchem.Mol object at 0x7f5838cef5a0>, <rdkit.Chem.rdchem.Mol object at 0x7f5838cedaf0>, <rdkit.Chem.rdchem.Mol object at 0x7f5838ceeea0>, <rdkit.Chem.rdchem.Mol object at 0x7f5838cef530>, <rdkit.Chem.rdchem.Mol object at 0x7f5838cee810>, <rdkit.Chem.rdchem.Mol object at 0x7f5838cef610>, <rdkit.Chem.rdchem.Mol object at 0x7f5838ceeab0>, '.', <rdkit.Chem.rdchem.Mol object at 0x7f5838ceda80>, <rdkit.Chem.rdchem.Mol object at 0x7f5838ceec70>, <rdkit.Chem.rdchem.Mol object at 0x7f5838cef920>, <rdkit.Chem.rdchem.Mol object at 0x7f5838cedd20>, <rdkit.Chem.rdchem.Mol object at 0x7f5838cefbc0>, <rdkit.Chem.rdchem.Mol object at 0x7f5838cee9d0>]","[0, 6065, 6066, 6067, 6068, 6069, 6070, 6071, 6072, 6073, 1, 6074, 6075, 6076, 6077, 6078, 6079]"
PTB7-Th,CZC8,-5.204782608695651,-3.5391891891891896,-5.72,-3.74,0.333,CB,_,100.0,MoOx,ZnO,4.91,4.96,0.98,45.0,"[<rdkit.Chem.rdchem.Mol object at 0x7f5838ced850>, <rdkit.Chem.rdchem.Mol object at 0x7f5838cefd80>, <rdkit.Chem.rdchem.Mol object at 0x7f5838ceda10>, <rdkit.Chem.rdchem.Mol object at 0x7f5838ceef80>, <rdkit.Chem.rdchem.Mol object at 0x7f5838cef290>, <rdkit.Chem.rdchem.Mol object at 0x7f5838cefed0>, <rdkit.Chem.rdchem.Mol object at 0x7f5838cf92a0>]","[<rdkit.Chem.rdchem.Mol object at 0x7f5838cedee0>, <rdkit.Chem.rdchem.Mol object at 0x7f5838cecc80>, <rdkit.Chem.rdchem.Mol object at 0x7f5838cef060>, <rdkit.Chem.rdchem.Mol object at 0x7f5838cee1f0>, <rdkit.Chem.rdchem.Mol object at 0x7f5838ceea40>, <rdkit.Chem.rdchem.Mol object at 0x7f5838cef140>]","[<rdkit.Chem.rdchem.Mol object at 0x7f5838ced850>, <rdkit.Chem.rdchem.Mol object at 0x7f5838cefd80>, <rdkit.Chem.rdchem.Mol object at 0x7f5838ceda10>, <rdkit.Chem.rdchem.Mol object at 0x7f5838ceef80>, <rdkit.Chem.rdchem.Mol object at 0x7f5838cef290>, <rdkit.Chem.rdchem.Mol object at 0x7f5838cefed0>, <rdkit.Chem.rdchem.Mol object at 0x7f5838cf92a0>, '.', <rdkit.Chem.rdchem.Mol object at 0x7f5838cedee0>, <rdkit.Chem.rdchem.Mol object at 0x7f5838cecc80>, <rdkit.Chem.rdchem.Mol object at 0x7f5838cef060>, <rdkit.Chem.rdchem.Mol object at 0x7f5838cee1f0>, <rdkit.Chem.rdchem.Mol object at 0x7f5838ceea40>, <rdkit.Chem.rdchem.Mol object at 0x7f5838cef140>]","[0, 0, 0, 6080, 6081, 6082, 6083, 6084, 6085, 6086, 1, 6087, 6088, 6089, 6090, 6091, 6092]"
PTFBDT,CZC8,-5.5,-3.69,-5.72,-3.74,0.333,CB,_,150.0,MoOx,ZnO,4.67,4.73,1.16,51.0,"[<rdkit.Chem.rdchem.Mol object at 0x7f5838cee340>, <rdkit.Chem.rdchem.Mol object at 0x7f5838cee7a0>, <rdkit.Chem.rdchem.Mol object at 0x7f5838cef300>, <rdkit.Chem.rdchem.Mol object at 0x7f5838cf8e40>, <rdkit.Chem.rdchem.Mol object at 0x7f5838cef1b0>, <rdkit.Chem.rdchem.Mol object at 0x7f5838cf8f20>, <rdkit.Chem.rdchem.Mol object at 0x7f5838cf9000>, <rdkit.Chem.rdchem.Mol object at 0x7f5838cf8c10>]","[<rdkit.Chem.rdchem.Mol object at 0x7f5838cee3b0>, <rdkit.Chem.rdchem.Mol object at 0x7f5838cf8200>, <rdkit.Chem.rdchem.Mol object at 0x7f5838ceedc0>, <rdkit.Chem.rdchem.Mol object at 0x7f5838cf87b0>, <rdkit.Chem.rdchem.Mol object at 0x7f5838cf8580>, <rdkit.Chem.rdchem.Mol object at 0x7f5838cf9540>]","[<rdkit.Chem.rdchem.Mol object at 0x7f5838cee340>, <rdkit.Chem.rdchem.Mol object at 0x7f5838cee7a0>, <rdkit.Chem.rdchem.Mol object at 0x7f5838cef300>, <rdkit.Chem.rdchem.Mol object at 0x7f5838cf8e40>, <rdkit.Chem.rdchem.Mol object at 0x7f5838cef1b0>, <rdkit.Chem.rdchem.Mol object at 0x7f5838cf8f20>, <rdkit.Chem.rdchem.Mol object at 0x7f5838cf9000>, <rdkit.Chem.rdchem.Mol object at 0x7f5838cf8c10>, '.', <rdkit.Chem.rdchem.Mol object at 0x7f5838cee3b0>, <rdkit.Chem.rdchem.Mol object at 0x7f5838cf8200>, <rdkit.Chem.rdchem.Mol object at 0x7f5838ceedc0>, <rdkit.Chem.rdchem.Mol object at 0x7f5838cf87b0>, <rdkit.Chem.rdchem.Mol object at 0x7f5838cf8580>, <rdkit.Chem.rdchem.Mol object at 0x7f5838cf9540>]","[0, 0, 6093, 6094, 6095, 6096, 6097, 6098, 6099, 6100, 1, 6101, 6102, 6103, 6104, 6105, 6106]"
PBDB-T,IDTC,-5.297714285714285,-3.4170000000000003,-5.29,-3.37,1.0,CF,_,160.0,PEDOT:PSS,PDINO,9.35,9.36,0.917,61.61,"[<rdkit.Chem.rdchem.Mol object at 0x7f5838cedb60>, <rdkit.Chem.rdchem.Mol object at 0x7f5838cf8b30>, <rdkit.Chem.rdchem.Mol object at 0x7f5838cf83c0>, <rdkit.Chem.rdchem.Mol object at 0x7f5838cf85f0>, <rdkit.Chem.rdchem.Mol object at 0x7f5838cf9af0>]","[<rdkit.Chem.rdchem.Mol object at 0x7f5838cf9b60>, <rdkit.Chem.rdchem.Mol object at 0x7f5838cf8900>, <rdkit.Chem.rdchem.Mol object at 0x7f5838cf9620>, <rdkit.Chem.rdchem.Mol object at 0x7f5838cf9700>, <rdkit.Chem.rdchem.Mol object at 0x7f5838cf8740>, <rdkit.Chem.rdchem.Mol object at 0x7f5838cfaf80>, <rdkit.Chem.rdchem.Mol object at 0x7f5838cface0>]","[<rdkit.Chem.rdchem.Mol object at 0x7f5838cedb60>, <rdkit.Chem.rdchem.Mol object at 0x7f5838cf8b30>, <rdkit.Chem.rdchem.Mol object at 0x7f5838cf83c0>, <rdkit.Chem.rdchem.Mol object at 0x7f5838cf85f0>, <rdkit.Chem.rdchem.Mol object at 0x7f5838cf9af0>, '.', <rdkit.Chem.rdchem.Mol object at 0x7f5838cf9b60>, <rdkit.Chem.rdchem.Mol object at 0x7f5838cf8900>, <rdkit.Chem.rdchem.Mol object at 0x7f5838cf9620>, <rdkit.Chem.rdchem.Mol object at 0x7f5838cf9700>, <rdkit.Chem.rdchem.Mol object at 0x7f5838cf8740>, <rdkit.Chem.rdchem.Mol object at 0x7f5838cfaf80>, <rdkit.Chem.rdchem.Mol object at 0x7f5838cface0>]","[0, 0, 0, 0, 6107, 6108, 6109, 6110, 6111, 1, 6112, 6113, 6114, 6115, 6116, 6117, 6118]"
PBDB-T,IDTO,-5.297714285714285,-3.4170000000000003,-5.11,-3.38,1.0,CF,_,160.0,PEDOT:PSS,PDINO,10.02,10.02,0.943,65.41,"[<rdkit.Chem.rdchem.Mol object at 0x7f5838cef8b0>, <rdkit.Chem.rdchem.Mol object at 0x7f5838cfa960>, <rdkit.Chem.rdchem.Mol object at 0x7f5838cfa8f0>, <rdkit.Chem.rdchem.Mol object at 0x7f5838cfa110>, <rdkit.Chem.rdchem.Mol object at 0x7f5838cf8120>]","[<rdkit.Chem.rdchem.Mol object at 0x7f5838cef450>, <rdkit.Chem.rdchem.Mol object at 0x7f5838cf9d90>, <rdkit.Chem.rdchem.Mol object at 0x7f5838cfa340>, <rdkit.Chem.rdchem.Mol object at 0x7f5838cf9e70>, <rdkit.Chem.rdchem.Mol object at 0x7f5838cfa500>, <rdkit.Chem.rdchem.Mol object at 0x7f5838cfa650>, <rdkit.Chem.rdchem.Mol object at 0x7f5838cfaea0>, <rdkit.Chem.rdchem.Mol object at 0x7f5838cfad50>]","[<rdkit.Chem.rdchem.Mol object at 0x7f5838cef8b0>, <rdkit.Chem.rdchem.Mol object at 0x7f5838cfa960>, <rdkit.Chem.rdchem.Mol object at 0x7f5838cfa8f0>, <rdkit.Chem.rdchem.Mol object at 0x7f5838cfa110>, <rdkit.Chem.rdchem.Mol object at 0x7f5838cf8120>, '.', <rdkit.Chem.rdchem.Mol object at 0x7f5838cef450>, <rdkit.Chem.rdchem.Mol object at 0x7f5838cf9d90>, <rdkit.Chem.rdchem.Mol object at 0x7f5838cfa340>, <rdkit.Chem.rdchem.Mol object at 0x7f5838cf9e70>, <rdkit.Chem.rdchem.Mol object at 0x7f5838cfa500>, <rdkit.Chem.rdchem.Mol object at 0x7f5838cfa650>, <rdkit.Chem.rdchem.Mol object at 0x7f5838cfaea0>, <rdkit.Chem.rdchem.Mol object at 0x7f5838cfad50>]","[0, 0, 0, 6119, 6120, 6121, 6122, 6123, 1, 6124, 6125, 6126, 6127, 6128, 6129, 6130, 6131]"