Donor,Acceptor,HOMO_D_eV,LUMO_D_eV,HOMO_A_eV,LUMO_A_eV,D_A_ratio_m_m,solvent,solvent_additive,annealing_temperature,hole_contact_layer,electron_contact_layer,PCE_percent,calc_PCE_percent,Voc_V,FF_percent,Donor_BRICS,Acceptor_BRICS,DA_pair_BRICS,DA_tokenized_BRICS
PM6,Y6,-5.529999999999999,-3.555,-5.65,-4.1,0.833,CF,CN,110.0,PEDOT:PSS,PDINO,15.7,15.71,0.83,74.8,"[<rdkit.Chem.rdchem.Mol object at 0x7f5838dffc30>, <rdkit.Chem.rdchem.Mol object at 0x7f5838e0fbc0>, <rdkit.Chem.rdchem.Mol object at 0x7f5838e0fb50>, <rdkit.Chem.rdchem.Mol object at 0x7f5838e0e810>, <rdkit.Chem.rdchem.Mol object at 0x7f5838e0f0d0>, <rdkit.Chem.rdchem.Mol object at 0x7f5838e0f290>]","[<rdkit.Chem.rdchem.Mol object at 0x7f5838e0f920>, <rdkit.Chem.rdchem.Mol object at 0x7f5838e0d460>, <rdkit.Chem.rdchem.Mol object at 0x7f5838e0eff0>, <rdkit.Chem.rdchem.Mol object at 0x7f5838e0dfc0>, <rdkit.Chem.rdchem.Mol object at 0x7f5838e0dee0>, <rdkit.Chem.rdchem.Mol object at 0x7f5838e0fd80>]","[<rdkit.Chem.rdchem.Mol object at 0x7f5838dffc30>, <rdkit.Chem.rdchem.Mol object at 0x7f5838e0fbc0>, <rdkit.Chem.rdchem.Mol object at 0x7f5838e0fb50>, <rdkit.Chem.rdchem.Mol object at 0x7f5838e0e810>, <rdkit.Chem.rdchem.Mol object at 0x7f5838e0f0d0>, <rdkit.Chem.rdchem.Mol object at 0x7f5838e0f290>, '.', <rdkit.Chem.rdchem.Mol object at 0x7f5838e0f920>, <rdkit.Chem.rdchem.Mol object at 0x7f5838e0d460>, <rdkit.Chem.rdchem.Mol object at 0x7f5838e0eff0>, <rdkit.Chem.rdchem.Mol object at 0x7f5838e0dfc0>, <rdkit.Chem.rdchem.Mol object at 0x7f5838e0dee0>, <rdkit.Chem.rdchem.Mol object at 0x7f5838e0fd80>]","[0, 0, 0, 0, 3436, 3437, 3438, 3439, 3440, 3441, 1, 3442, 3443, 3444, 3445, 3446, 3447]"
PBDBT-2F,IT-4F,-5.5,-3.75,-5.66875,-4.060416666666667,1.0,CB,DIO,25.0,PEDOT:PSS,PFN-Br,13.37,13.33,0.86,74.5,"[<rdkit.Chem.rdchem.Mol object at 0x7f5838e0e500>, <rdkit.Chem.rdchem.Mol object at 0x7f5838e102e0>, <rdkit.Chem.rdchem.Mol object at 0x7f5838e10270>, <rdkit.Chem.rdchem.Mol object at 0x7f5838e103c0>, <rdkit.Chem.rdchem.Mol object at 0x7f5838e113f0>, <rdkit.Chem.rdchem.Mol object at 0x7f5838e11e00>]","[<rdkit.Chem.rdchem.Mol object at 0x7f5838e11f50>, <rdkit.Chem.rdchem.Mol object at 0x7f5838e10510>, <rdkit.Chem.rdchem.Mol object at 0x7f5838e11000>, <rdkit.Chem.rdchem.Mol object at 0x7f5838e114d0>, <rdkit.Chem.rdchem.Mol object at 0x7f5838e10970>]","[<rdkit.Chem.rdchem.Mol object at 0x7f5838e0e500>, <rdkit.Chem.rdchem.Mol object at 0x7f5838e102e0>, <rdkit.Chem.rdchem.Mol object at 0x7f5838e10270>, <rdkit.Chem.rdchem.Mol object at 0x7f5838e103c0>, <rdkit.Chem.rdchem.Mol object at 0x7f5838e113f0>, <rdkit.Chem.rdchem.Mol object at 0x7f5838e11e00>, '.', <rdkit.Chem.rdchem.Mol object at 0x7f5838e11f50>, <rdkit.Chem.rdchem.Mol object at 0x7f5838e10510>, <rdkit.Chem.rdchem.Mol object at 0x7f5838e11000>, <rdkit.Chem.rdchem.Mol object at 0x7f5838e114d0>, <rdkit.Chem.rdchem.Mol object at 0x7f5838e10970>]","[0, 0, 0, 0, 0, 3510, 3511, 3512, 3513, 3514, 3515, 1, 3516, 3517, 3518, 3519, 3520]"
PBDBT-2F,ITIC,-5.5,-3.75,-5.574146341463415,-3.915,1.0,CB,DIO,25.0,PEDOT:PSS,PFN-Br,10.64,10.64,1.0,66.07,"[<rdkit.Chem.rdchem.Mol object at 0x7f5838e0f060>, <rdkit.Chem.rdchem.Mol object at 0x7f5838e10b30>, <rdkit.Chem.rdchem.Mol object at 0x7f5838e10f20>, <rdkit.Chem.rdchem.Mol object at 0x7f5838e11850>, <rdkit.Chem.rdchem.Mol object at 0x7f5838e10820>, <rdkit.Chem.rdchem.Mol object at 0x7f5838e11bd0>]","[<rdkit.Chem.rdchem.Mol object at 0x7f5838e12730>, <rdkit.Chem.rdchem.Mol object at 0x7f5838e10e40>, <rdkit.Chem.rdchem.Mol object at 0x7f5838e10eb0>, <rdkit.Chem.rdchem.Mol object at 0x7f5838e12260>, <rdkit.Chem.rdchem.Mol object at 0x7f5838e12030>]","[<rdkit.Chem.rdchem.Mol object at 0x7f5838e0f060>, <rdkit.Chem.rdchem.Mol object at 0x7f5838e10b30>, <rdkit.Chem.rdchem.Mol object at 0x7f5838e10f20>, <rdkit.Chem.rdchem.Mol object at 0x7f5838e11850>, <rdkit.Chem.rdchem.Mol object at 0x7f5838e10820>, <rdkit.Chem.rdchem.Mol object at 0x7f5838e11bd0>, '.', <rdkit.Chem.rdchem.Mol object at 0x7f5838e12730>, <rdkit.Chem.rdchem.Mol object at 0x7f5838e10e40>, <rdkit.Chem.rdchem.Mol object at 0x7f5838e10eb0>, <rdkit.Chem.rdchem.Mol object at 0x7f5838e12260>, <rdkit.Chem.rdchem.Mol object at 0x7f5838e12030>]","[0, 0, 0, 0, 0, 3521, 3522, 3523, 3524, 3525, 3526, 1, 3527, 3528, 3529, 3530, 3531]"
PBDB-T,ATT-6,-5.297714285714285,-3.4170000000000003,-5.45,-3.61,1.0,CF,_,160.0,PEDOT:PSS,PDINO,8.22,8.36,0.96,59.37,"[<rdkit.Chem.rdchem.Mol object at 0x7f5838e0f840>, <rdkit.Chem.rdchem.Mol object at 0x7f5838e11540>, <rdkit.Chem.rdchem.Mol object at 0x7f5838e10c10>, <rdkit.Chem.rdchem.Mol object at 0x7f5838e10040>, <rdkit.Chem.rdchem.Mol object at 0x7f5838e12960>]","[<rdkit.Chem.rdchem.Mol object at 0x7f5838e12ab0>, <rdkit.Chem.rdchem.Mol object at 0x7f5838e129d0>, <rdkit.Chem.rdchem.Mol object at 0x7f5838e12b90>, <rdkit.Chem.rdchem.Mol object at 0x7f5838e127a0>, <rdkit.Chem.rdchem.Mol object at 0x7f5838e12420>, <rdkit.Chem.rdchem.Mol object at 0x7f5838e12180>, <rdkit.Chem.rdchem.Mol object at 0x7f5838e122d0>]","[<rdkit.Chem.rdchem.Mol object at 0x7f5838e0f840>, <rdkit.Chem.rdchem.Mol object at 0x7f5838e11540>, <rdkit.Chem.rdchem.Mol object at 0x7f5838e10c10>, <rdkit.Chem.rdchem.Mol object at 0x7f5838e10040>, <rdkit.Chem.rdchem.Mol object at 0x7f5838e12960>, '.', <rdkit.Chem.rdchem.Mol object at 0x7f5838e12ab0>, <rdkit.Chem.rdchem.Mol object at 0x7f5838e129d0>, <rdkit.Chem.rdchem.Mol object at 0x7f5838e12b90>, <rdkit.Chem.rdchem.Mol object at 0x7f5838e127a0>, <rdkit.Chem.rdchem.Mol object at 0x7f5838e12420>, <rdkit.Chem.rdchem.Mol object at 0x7f5838e12180>, <rdkit.Chem.rdchem.Mol object at 0x7f5838e122d0>]","[0, 0, 0, 0, 3532, 3533, 3534, 3535, 3536, 1, 3537, 3538, 3539, 3540, 3541, 3542, 3543]"
PBDB-T,ATT-7,-5.297714285714285,-3.4170000000000003,-5.48,-3.66,1.0,CF,_,160.0,PEDOT:PSS,PDINO,10.12,10.34,0.97,66.67,"[<rdkit.Chem.rdchem.Mol object at 0x7f5838e11770>, <rdkit.Chem.rdchem.Mol object at 0x7f5838e10190>, <rdkit.Chem.rdchem.Mol object at 0x7f5838e12340>, <rdkit.Chem.rdchem.Mol object at 0x7f5838e10d60>, <rdkit.Chem.rdchem.Mol object at 0x7f5838e12f80>]","[<rdkit.Chem.rdchem.Mol object at 0x7f5838e130d0>, <rdkit.Chem.rdchem.Mol object at 0x7f5838e12ff0>, <rdkit.Chem.rdchem.Mol object at 0x7f5838e10cf0>, <rdkit.Chem.rdchem.Mol object at 0x7f5838e11460>, <rdkit.Chem.rdchem.Mol object at 0x7f5838e12490>, <rdkit.Chem.rdchem.Mol object at 0x7f5838e11cb0>, <rdkit.Chem.rdchem.Mol object at 0x7f5838e13300>, <rdkit.Chem.rdchem.Mol object at 0x7f5838e13060>, <rdkit.Chem.rdchem.Mol object at 0x7f5838e13370>]","[<rdkit.Chem.rdchem.Mol object at 0x7f5838e11770>, <rdkit.Chem.rdchem.Mol object at 0x7f5838e10190>, <rdkit.Chem.rdchem.Mol object at 0x7f5838e12340>, <rdkit.Chem.rdchem.Mol object at 0x7f5838e10d60>, <rdkit.Chem.rdchem.Mol object at 0x7f5838e12f80>, '.', <rdkit.Chem.rdchem.Mol object at 0x7f5838e130d0>, <rdkit.Chem.rdchem.Mol object at 0x7f5838e12ff0>, <rdkit.Chem.rdchem.Mol object at 0x7f5838e10cf0>, <rdkit.Chem.rdchem.Mol object at 0x7f5838e11460>, <rdkit.Chem.rdchem.Mol object at 0x7f5838e12490>, <rdkit.Chem.rdchem.Mol object at 0x7f5838e11cb0>, <rdkit.Chem.rdchem.Mol object at 0x7f5838e13300>, <rdkit.Chem.rdchem.Mol object at 0x7f5838e13060>, <rdkit.Chem.rdchem.Mol object at 0x7f5838e13370>]","[0, 0, 3544, 3545, 3546, 3547, 3548, 1, 3549, 3550, 3551, 3552, 3553, 3554, 3555, 3556, 3557]"
PBDB-T,Y1,-5.297714285714285,-3.4170000000000003,-5.45,-3.95,1.0,CB,CN,25.0,MoOx,ZnO,13.42,13.49,0.87,69.1,"[<rdkit.Chem.rdchem.Mol object at 0x7f5838e11380>, <rdkit.Chem.rdchem.Mol object at 0x7f5838e11a80>, <rdkit.Chem.rdchem.Mol object at 0x7f5838e12110>, <rdkit.Chem.rdchem.Mol object at 0x7f5838e11d90>, <rdkit.Chem.rdchem.Mol object at 0x7f5838e13610>]","[<rdkit.Chem.rdchem.Mol object at 0x7f5838e13840>, <rdkit.Chem.rdchem.Mol object at 0x7f5838e11d20>, <rdkit.Chem.rdchem.Mol object at 0x7f5838e12a40>, <rdkit.Chem.rdchem.Mol object at 0x7f5838e11fc0>, <rdkit.Chem.rdchem.Mol object at 0x7f5838e11150>]","[<rdkit.Chem.rdchem.Mol object at 0x7f5838e11380>, <rdkit.Chem.rdchem.Mol object at 0x7f5838e11a80>, <rdkit.Chem.rdchem.Mol object at 0x7f5838e12110>, <rdkit.Chem.rdchem.Mol object at 0x7f5838e11d90>, <rdkit.Chem.rdchem.Mol object at 0x7f5838e13610>, '.', <rdkit.Chem.rdchem.Mol object at 0x7f5838e13840>, <rdkit.Chem.rdchem.Mol object at 0x7f5838e11d20>, <rdkit.Chem.rdchem.Mol object at 0x7f5838e12a40>, <rdkit.Chem.rdchem.Mol object at 0x7f5838e11fc0>, <rdkit.Chem.rdchem.Mol object at 0x7f5838e11150>]","[0, 0, 0, 0, 0, 0, 3558, 3559, 3560, 3561, 3562, 1, 3563, 3564, 3565, 3566, 3567]"
PBDB-T,Y2,-5.297714285714285,-3.4170000000000003,-5.43,-4.04,1.0,CB,CN,25.0,MoOx,ZnO,13.4,13.41,0.82,69.4,"[<rdkit.Chem.rdchem.Mol object at 0x7f5838e126c0>, <rdkit.Chem.rdchem.Mol object at 0x7f5838e12880>, <rdkit.Chem.rdchem.Mol object at 0x7f5838e12c00>, <rdkit.Chem.rdchem.Mol object at 0x7f5838e11e70>, <rdkit.Chem.rdchem.Mol object at 0x7f5838e13ae0>]","[<rdkit.Chem.rdchem.Mol object at 0x7f5838e13d10>, <rdkit.Chem.rdchem.Mol object at 0x7f5838e12dc0>, <rdkit.Chem.rdchem.Mol object at 0x7f5838e131b0>, <rdkit.Chem.rdchem.Mol object at 0x7f5838e11310>, <rdkit.Chem.rdchem.Mol object at 0x7f5838e109e0>]","[<rdkit.Chem.rdchem.Mol object at 0x7f5838e126c0>, <rdkit.Chem.rdchem.Mol object at 0x7f5838e12880>, <rdkit.Chem.rdchem.Mol object at 0x7f5838e12c00>, <rdkit.Chem.rdchem.Mol object at 0x7f5838e11e70>, <rdkit.Chem.rdchem.Mol object at 0x7f5838e13ae0>, '.', <rdkit.Chem.rdchem.Mol object at 0x7f5838e13d10>, <rdkit.Chem.rdchem.Mol object at 0x7f5838e12dc0>, <rdkit.Chem.rdchem.Mol object at 0x7f5838e131b0>, <rdkit.Chem.rdchem.Mol object at 0x7f5838e11310>, <rdkit.Chem.rdchem.Mol object at 0x7f5838e109e0>]","[0, 0, 0, 0, 0, 0, 3568, 3569, 3570, 3571, 3572, 1, 3573, 3574, 3575, 3576, 3577]"
PBDB-T,BDTS-4Cl,-5.297714285714285,-3.4170000000000003,-5.45,-3.82,1.0,CF,_,25.0,PEDOT:PSS,PDINO,3.73,3.73,0.83,45.9,"[<rdkit.Chem.rdchem.Mol object at 0x7f5838e10a50>, <rdkit.Chem.rdchem.Mol object at 0x7f5838e138b0>, <rdkit.Chem.rdchem.Mol object at 0x7f5838e13450>, <rdkit.Chem.rdchem.Mol object at 0x7f5838e12d50>, <rdkit.Chem.rdchem.Mol object at 0x7f5838e13bc0>]","[<rdkit.Chem.rdchem.Mol object at 0x7f5838e128f0>, <rdkit.Chem.rdchem.Mol object at 0x7f5838e11620>, <rdkit.Chem.rdchem.Mol object at 0x7f5838e13220>, <rdkit.Chem.rdchem.Mol object at 0x7f5838e121f0>, <rdkit.Chem.rdchem.Mol object at 0x7f5838e135a0>, <rdkit.Chem.rdchem.Mol object at 0x7f5838e12f10>, <rdkit.Chem.rdchem.Mol object at 0x7f5838e10660>]","[<rdkit.Chem.rdchem.Mol object at 0x7f5838e10a50>, <rdkit.Chem.rdchem.Mol object at 0x7f5838e138b0>, <rdkit.Chem.rdchem.Mol object at 0x7f5838e13450>, <rdkit.Chem.rdchem.Mol object at 0x7f5838e12d50>, <rdkit.Chem.rdchem.Mol object at 0x7f5838e13bc0>, '.', <rdkit.Chem.rdchem.Mol object at 0x7f5838e128f0>, <rdkit.Chem.rdchem.Mol object at 0x7f5838e11620>, <rdkit.Chem.rdchem.Mol object at 0x7f5838e13220>, <rdkit.Chem.rdchem.Mol object at 0x7f5838e121f0>, <rdkit.Chem.rdchem.Mol object at 0x7f5838e135a0>, <rdkit.Chem.rdchem.Mol object at 0x7f5838e12f10>, <rdkit.Chem.rdchem.Mol object at 0x7f5838e10660>]","[0, 0, 0, 0, 3578, 3579, 3580, 3581, 3582, 1, 3583, 3584, 3585, 3586, 3587, 3588, 3589]"
PBDB-T,BDTC-4Cl,-5.297714285714285,-3.4170000000000003,-5.35,-3.75,1.0,CF,_,25.0,PEDOT:PSS,PDINO,9.54,9.54,0.864,59.5,"[<rdkit.Chem.rdchem.Mol object at 0x7f5838e12b20>, <rdkit.Chem.rdchem.Mol object at 0x7f5838e13d80>, <rdkit.Chem.rdchem.Mol object at 0x7f5838e13530>, <rdkit.Chem.rdchem.Mol object at 0x7f5838e12e30>, <rdkit.Chem.rdchem.Mol object at 0x7f5838e24510>]","[<rdkit.Chem.rdchem.Mol object at 0x7f5838e11ee0>, <rdkit.Chem.rdchem.Mol object at 0x7f5838e13ed0>, <rdkit.Chem.rdchem.Mol object at 0x7f5838e13df0>, <rdkit.Chem.rdchem.Mol object at 0x7f5838e10740>, <rdkit.Chem.rdchem.Mol object at 0x7f5838e12810>, <rdkit.Chem.rdchem.Mol object at 0x7f5838e133e0>, <rdkit.Chem.rdchem.Mol object at 0x7f5838e13c30>]","[<rdkit.Chem.rdchem.Mol object at 0x7f5838e12b20>, <rdkit.Chem.rdchem.Mol object at 0x7f5838e13d80>, <rdkit.Chem.rdchem.Mol object at 0x7f5838e13530>, <rdkit.Chem.rdchem.Mol object at 0x7f5838e12e30>, <rdkit.Chem.rdchem.Mol object at 0x7f5838e24510>, '.', <rdkit.Chem.rdchem.Mol object at 0x7f5838e11ee0>, <rdkit.Chem.rdchem.Mol object at 0x7f5838e13ed0>, <rdkit.Chem.rdchem.Mol object at 0x7f5838e13df0>, <rdkit.Chem.rdchem.Mol object at 0x7f5838e10740>, <rdkit.Chem.rdchem.Mol object at 0x7f5838e12810>, <rdkit.Chem.rdchem.Mol object at 0x7f5838e133e0>, <rdkit.Chem.rdchem.Mol object at 0x7f5838e13c30>]","[0, 0, 0, 0, 3590, 3591, 3592, 3593, 3594, 1, 3595, 3596, 3597, 3598, 3599, 3600, 3601]"
PTBB-o,ITCPTC,-5.52,-3.37,-5.604000000000001,-3.858000000000001,1.0,CF,_,100.0,MoOx,ZnO,2.14,2.22,0.99,30.5,"[<rdkit.Chem.rdchem.Mol object at 0x7f5838e12650>, <rdkit.Chem.rdchem.Mol object at 0x7f5838e13a70>, <rdkit.Chem.rdchem.Mol object at 0x7f5838e10dd0>, <rdkit.Chem.rdchem.Mol object at 0x7f5838e13760>, <rdkit.Chem.rdchem.Mol object at 0x7f5838e119a0>, <rdkit.Chem.rdchem.Mol object at 0x7f5838e11c40>, <rdkit.Chem.rdchem.Mol object at 0x7f5838e125e0>, <rdkit.Chem.rdchem.Mol object at 0x7f5838e24970>]","[<rdkit.Chem.rdchem.Mol object at 0x7f5838e12570>, <rdkit.Chem.rdchem.Mol object at 0x7f5838e13ca0>, <rdkit.Chem.rdchem.Mol object at 0x7f5838e12ea0>, <rdkit.Chem.rdchem.Mol object at 0x7f5838e120a0>, <rdkit.Chem.rdchem.Mol object at 0x7f5838e24a50>]","[<rdkit.Chem.rdchem.Mol object at 0x7f5838e12650>, <rdkit.Chem.rdchem.Mol object at 0x7f5838e13a70>, <rdkit.Chem.rdchem.Mol object at 0x7f5838e10dd0>, <rdkit.Chem.rdchem.Mol object at 0x7f5838e13760>, <rdkit.Chem.rdchem.Mol object at 0x7f5838e119a0>, <rdkit.Chem.rdchem.Mol object at 0x7f5838e11c40>, <rdkit.Chem.rdchem.Mol object at 0x7f5838e125e0>, <rdkit.Chem.rdchem.Mol object at 0x7f5838e24970>, '.', <rdkit.Chem.rdchem.Mol object at 0x7f5838e12570>, <rdkit.Chem.rdchem.Mol object at 0x7f5838e13ca0>, <rdkit.Chem.rdchem.Mol object at 0x7f5838e12ea0>, <rdkit.Chem.rdchem.Mol object at 0x7f5838e120a0>, <rdkit.Chem.rdchem.Mol object at 0x7f5838e24a50>]","[0, 0, 0, 3602, 3603, 3604, 3605, 3606, 3607, 3608, 3609, 1, 3610, 3611, 3612, 3613, 3614]"
PTBB-m,ITCPTC,-5.48,-3.42,-5.604000000000001,-3.858000000000001,1.0,CF,_,100.0,MoOx,ZnO,7.07,7.06,0.97,48.4,"[<rdkit.Chem.rdchem.Mol object at 0x7f5838e13f40>, <rdkit.Chem.rdchem.Mol object at 0x7f5838e13a00>, <rdkit.Chem.rdchem.Mol object at 0x7f5838e11930>, <rdkit.Chem.rdchem.Mol object at 0x7f5838e24660>, <rdkit.Chem.rdchem.Mol object at 0x7f5838e13140>, <rdkit.Chem.rdchem.Mol object at 0x7f5838e24040>, <rdkit.Chem.rdchem.Mol object at 0x7f5838e246d0>, <rdkit.Chem.rdchem.Mol object at 0x7f5838e24c80>]","[<rdkit.Chem.rdchem.Mol object at 0x7f5838e11230>, <rdkit.Chem.rdchem.Mol object at 0x7f5838e24270>, <rdkit.Chem.rdchem.Mol object at 0x7f5838e13920>, <rdkit.Chem.rdchem.Mol object at 0x7f5838e244a0>, <rdkit.Chem.rdchem.Mol object at 0x7f5838e24d60>]","[<rdkit.Chem.rdchem.Mol object at 0x7f5838e13f40>, <rdkit.Chem.rdchem.Mol object at 0x7f5838e13a00>, <rdkit.Chem.rdchem.Mol object at 0x7f5838e11930>, <rdkit.Chem.rdchem.Mol object at 0x7f5838e24660>, <rdkit.Chem.rdchem.Mol object at 0x7f5838e13140>, <rdkit.Chem.rdchem.Mol object at 0x7f5838e24040>, <rdkit.Chem.rdchem.Mol object at 0x7f5838e246d0>, <rdkit.Chem.rdchem.Mol object at 0x7f5838e24c80>, '.', <rdkit.Chem.rdchem.Mol object at 0x7f5838e11230>, <rdkit.Chem.rdchem.Mol object at 0x7f5838e24270>, <rdkit.Chem.rdchem.Mol object at 0x7f5838e13920>, <rdkit.Chem.rdchem.Mol object at 0x7f5838e244a0>, <rdkit.Chem.rdchem.Mol object at 0x7f5838e24d60>]","[0, 0, 0, 3615, 3616, 3617, 3618, 3619, 3620, 3621, 3622, 1, 3623, 3624, 3625, 3626, 3627]"
PTBB-p,ITCPTC,-5.41,-3.49,-5.604000000000001,-3.858000000000001,1.0,CF,_,100.0,MoOx,ZnO,7.26,7.27,0.91,50.9,"[<rdkit.Chem.rdchem.Mol object at 0x7f5838e136f0>, <rdkit.Chem.rdchem.Mol object at 0x7f5838e134c0>, <rdkit.Chem.rdchem.Mol object at 0x7f5838e12c70>, <rdkit.Chem.rdchem.Mol object at 0x7f5838e24580>, <rdkit.Chem.rdchem.Mol object at 0x7f5838e24350>, <rdkit.Chem.rdchem.Mol object at 0x7f5838e242e0>, <rdkit.Chem.rdchem.Mol object at 0x7f5838e245f0>, <rdkit.Chem.rdchem.Mol object at 0x7f5838e252a0>]","[<rdkit.Chem.rdchem.Mol object at 0x7f5838e250e0>, <rdkit.Chem.rdchem.Mol object at 0x7f5838e24890>, <rdkit.Chem.rdchem.Mol object at 0x7f5838e13680>, <rdkit.Chem.rdchem.Mol object at 0x7f5838e24900>, <rdkit.Chem.rdchem.Mol object at 0x7f5838e24e40>]","[<rdkit.Chem.rdchem.Mol object at 0x7f5838e136f0>, <rdkit.Chem.rdchem.Mol object at 0x7f5838e134c0>, <rdkit.Chem.rdchem.Mol object at 0x7f5838e12c70>, <rdkit.Chem.rdchem.Mol object at 0x7f5838e24580>, <rdkit.Chem.rdchem.Mol object at 0x7f5838e24350>, <rdkit.Chem.rdchem.Mol object at 0x7f5838e242e0>, <rdkit.Chem.rdchem.Mol object at 0x7f5838e245f0>, <rdkit.Chem.rdchem.Mol object at 0x7f5838e252a0>, '.', <rdkit.Chem.rdchem.Mol object at 0x7f5838e250e0>, <rdkit.Chem.rdchem.Mol object at 0x7f5838e24890>, <rdkit.Chem.rdchem.Mol object at 0x7f5838e13680>, <rdkit.Chem.rdchem.Mol object at 0x7f5838e24900>, <rdkit.Chem.rdchem.Mol object at 0x7f5838e24e40>]","[0, 0, 0, 3628, 3629, 3630, 3631, 3632, 3633, 3634, 3635, 1, 3636, 3637, 3638, 3639, 3640]"
PBDS-TZ,IT-4F,-5.41,-3.46,-5.66875,-4.060416666666667,1.0,CB,DIO,90.0,MoOx,ZnO,12.01,11.78,0.804,73.1,"[<rdkit.Chem.rdchem.Mol object at 0x7f5838e13e60>, <rdkit.Chem.rdchem.Mol object at 0x7f5838e25310>, <rdkit.Chem.rdchem.Mol object at 0x7f5838e110e0>, <rdkit.Chem.rdchem.Mol object at 0x7f5838e25000>, <rdkit.Chem.rdchem.Mol object at 0x7f5838e24f90>, <rdkit.Chem.rdchem.Mol object at 0x7f5838e25700>]","[<rdkit.Chem.rdchem.Mol object at 0x7f5838e24740>, <rdkit.Chem.rdchem.Mol object at 0x7f5838e24190>, <rdkit.Chem.rdchem.Mol object at 0x7f5838e24f20>, <rdkit.Chem.rdchem.Mol object at 0x7f5838e24cf0>, <rdkit.Chem.rdchem.Mol object at 0x7f5838e254d0>]","[<rdkit.Chem.rdchem.Mol object at 0x7f5838e13e60>, <rdkit.Chem.rdchem.Mol object at 0x7f5838e25310>, <rdkit.Chem.rdchem.Mol object at 0x7f5838e110e0>, <rdkit.Chem.rdchem.Mol object at 0x7f5838e25000>, <rdkit.Chem.rdchem.Mol object at 0x7f5838e24f90>, <rdkit.Chem.rdchem.Mol object at 0x7f5838e25700>, '.', <rdkit.Chem.rdchem.Mol object at 0x7f5838e24740>, <rdkit.Chem.rdchem.Mol object at 0x7f5838e24190>, <rdkit.Chem.rdchem.Mol object at 0x7f5838e24f20>, <rdkit.Chem.rdchem.Mol object at 0x7f5838e24cf0>, <rdkit.Chem.rdchem.Mol object at 0x7f5838e254d0>]","[0, 0, 0, 0, 0, 3641, 3642, 3643, 3644, 3645, 3646, 1, 3647, 3648, 3649, 3650, 3651]"
J71,BTA701,-5.353333333333333,-3.4318181818181825,-5.27,-2.83,1.0,CF,_,120.0,PEDOT:PSS,Ca,0.07,0.07,1.32,25.0,"[<rdkit.Chem.rdchem.Mol object at 0x7f5838e137d0>, <rdkit.Chem.rdchem.Mol object at 0x7f5838e24120>, <rdkit.Chem.rdchem.Mol object at 0x7f5838e25540>, <rdkit.Chem.rdchem.Mol object at 0x7f5838e25b60>, <rdkit.Chem.rdchem.Mol object at 0x7f5838e24eb0>, <rdkit.Chem.rdchem.Mol object at 0x7f5838e25620>]","[<rdkit.Chem.rdchem.Mol object at 0x7f5838e25a80>, <rdkit.Chem.rdchem.Mol object at 0x7f5838e24dd0>, <rdkit.Chem.rdchem.Mol object at 0x7f5838e257e0>, <rdkit.Chem.rdchem.Mol object at 0x7f5838e249e0>, <rdkit.Chem.rdchem.Mol object at 0x7f5838e27680>, <rdkit.Chem.rdchem.Mol object at 0x7f5838e275a0>]","[<rdkit.Chem.rdchem.Mol object at 0x7f5838e137d0>, <rdkit.Chem.rdchem.Mol object at 0x7f5838e24120>, <rdkit.Chem.rdchem.Mol object at 0x7f5838e25540>, <rdkit.Chem.rdchem.Mol object at 0x7f5838e25b60>, <rdkit.Chem.rdchem.Mol object at 0x7f5838e24eb0>, <rdkit.Chem.rdchem.Mol object at 0x7f5838e25620>, '.', <rdkit.Chem.rdchem.Mol object at 0x7f5838e25a80>, <rdkit.Chem.rdchem.Mol object at 0x7f5838e24dd0>, <rdkit.Chem.rdchem.Mol object at 0x7f5838e257e0>, <rdkit.Chem.rdchem.Mol object at 0x7f5838e249e0>, <rdkit.Chem.rdchem.Mol object at 0x7f5838e27680>, <rdkit.Chem.rdchem.Mol object at 0x7f5838e275a0>]","[0, 0, 0, 0, 3652, 3653, 3654, 3655, 3656, 3657, 1, 3658, 3659, 3660, 3661, 3662, 3663]"