Donor,Acceptor,HOMO_D_eV,LUMO_D_eV,HOMO_A_eV,LUMO_A_eV,D_A_ratio_m_m,solvent,solvent_additive,annealing_temperature,hole_contact_layer,electron_contact_layer,PCE_percent,calc_PCE_percent,Voc_V,FF_percent,Donor_BRICS,Acceptor_BRICS,DA_pair_BRICS,DA_tokenized_BRICS
PBDTTT-C-T,IDT-2BM,-5.128,-3.268,-5.586666666666666,-4.083333333333333,1.5,o-DCB,CN,25.0,PEDOT:PSS,Ca,4.19,4.06,0.76,54.4,"['[6*]C(=O)CC(CC)CCCC', '[8*]CC(CC)CCCC', '[14*]c1cc2c(C)sc([14*])c2s1', '[14*]c1ccc([14*])s1', '[14*]c1cc2c([16*])c3sc(C)cc3c([16*])c2s1']","['[7*]C(C#N)C#N', '[7*]C[8*]', '[8*]CCCCCC', '[16*]c1ccc([16*])c2nsnc12', '[14*]c1cc2c(s1)-c1cc3c(cc1C2(c1ccc([16*])cc1)c1ccc([16*])cc1)-c1sc([14*])cc1C3(c1ccc([16*])cc1)c1ccc([16*])cc1']","['[6*]C(=O)CC(CC)CCCC', '[8*]CC(CC)CCCC', '[14*]c1cc2c(C)sc([14*])c2s1', '[14*]c1ccc([14*])s1', '[14*]c1cc2c([16*])c3sc(C)cc3c([16*])c2s1', '.', '[7*]C(C#N)C#N', '[7*]C[8*]', '[8*]CCCCCC', '[16*]c1ccc([16*])c2nsnc12', '[14*]c1cc2c(s1)-c1cc3c(cc1C2(c1ccc([16*])cc1)c1ccc([16*])cc1)-c1sc([14*])cc1C3(c1ccc([16*])cc1)c1ccc([16*])cc1']","[0, 0, 0, 0, 0, 0, 99, 5, 97, 7, 9, 1, 10, 12, 13, 128, 38]"
PBDTTT-C-T,IDTT-2BM,-5.128,-3.268,-5.5,-3.8,1.5,o-DCB,DIO,25.0,PEDOT:PSS,Ca,4.7,4.64,0.845,56.8,"['[6*]C(=O)CC(CC)CCCC', '[8*]CC(CC)CCCC', '[14*]c1cc2c(C)sc([14*])c2s1', '[14*]c1ccc([14*])s1', '[14*]c1cc2c([16*])c3sc(C)cc3c([16*])c2s1']","['[7*]C(C#N)C#N', '[7*]C[8*]', '[8*]CCCCCC', '[16*]c1ccc([16*])c2nsnc12', '[14*]c1cc2sc3c(c2s1)C(c1ccc([16*])cc1)(c1ccc([16*])cc1)c1cc2c(cc1-3)C(c1ccc([16*])cc1)(c1ccc([16*])cc1)c1c-2sc2cc([14*])sc12']","['[6*]C(=O)CC(CC)CCCC', '[8*]CC(CC)CCCC', '[14*]c1cc2c(C)sc([14*])c2s1', '[14*]c1ccc([14*])s1', '[14*]c1cc2c([16*])c3sc(C)cc3c([16*])c2s1', '.', '[7*]C(C#N)C#N', '[7*]C[8*]', '[8*]CCCCCC', '[16*]c1ccc([16*])c2nsnc12', '[14*]c1cc2sc3c(c2s1)C(c1ccc([16*])cc1)(c1ccc([16*])cc1)c1cc2c(cc1-3)C(c1ccc([16*])cc1)(c1ccc([16*])cc1)c1c-2sc2cc([14*])sc12']","[0, 0, 0, 0, 0, 0, 99, 5, 97, 7, 9, 1, 10, 12, 13, 128, 15]"
PBDB-T,IDT-Tz,-5.297714285714285,-3.4170000000000003,-5.62,-4.09,1.0,CB,CN,25.0,MoOx,ZnO,8.52,8.52,0.88,70.8,"['[8*]CC(CC)CCCC', '[14*]c1ccc(C)s1', '[14*]c1ccc([14*])s1', '[14*]c1sc([14*])c2c1C(=O)c1c([14*])sc([14*])c1C2=O', '[14*]c1cc2c([16*])c3sc(C)cc3c([16*])c2s1']","['[7*]C(C#N)C#N', '[7*]C1C(=O)c2ccccc2C1[7*]', '[7*]C[8*]', '[8*]CCCCCC', '[14*]c1cnc([14*])s1', '[16*]c1ccc(C2(c3ccc([16*])cc3)c3cc([16*])ccc3-c3cc4c(cc32)-c2ccc([16*])cc2C4(c2ccc([16*])cc2)c2ccc([16*])cc2)cc1']","['[8*]CC(CC)CCCC', '[14*]c1ccc(C)s1', '[14*]c1ccc([14*])s1', '[14*]c1sc([14*])c2c1C(=O)c1c([14*])sc([14*])c1C2=O', '[14*]c1cc2c([16*])c3sc(C)cc3c([16*])c2s1', '.', '[7*]C(C#N)C#N', '[7*]C1C(=O)c2ccccc2C1[7*]', '[7*]C[8*]', '[8*]CCCCCC', '[14*]c1cnc([14*])s1', '[16*]c1ccc(C2(c3ccc([16*])cc3)c3cc([16*])ccc3-c3cc4c(cc32)-c2ccc([16*])cc2C4(c2ccc([16*])cc2)c2ccc([16*])cc2)cc1']","[0, 0, 0, 0, 0, 5, 6, 7, 30, 9, 1, 10, 11, 12, 13, 154, 155]"
PTB7-Th,IDT-IC,-5.204782608695651,-3.5391891891891896,-5.693333333333334,-3.866666666666666,0.667,o-DCB,_,150.0,PEDOT:PSS,PDINO,3.16,3.16,0.83,40.0,"['[3*]O[3*]', '[4*]CC(CC)CCCC', '[1*]C([6*])=O', '[8*]CC(CC)CCCC', '[14*]c1sc2c([14*])sc(C)c2c1F', '[14*]c1ccc([14*])s1', '[14*]c1cc2c([16*])c3sc(C)cc3c([16*])c2s1']","['[7*]C(C#N)C#N', '[7*]C1C(=O)c2ccccc2C1[7*]', '[7*]C[8*]', '[8*]CCCCCC', '[14*]c1cc2c(s1)-c1cc3c(cc1C2(c1ccc([16*])cc1)c1ccc([16*])cc1)-c1sc([14*])cc1C3(c1ccc([16*])cc1)c1ccc([16*])cc1']","['[3*]O[3*]', '[4*]CC(CC)CCCC', '[1*]C([6*])=O', '[8*]CC(CC)CCCC', '[14*]c1sc2c([14*])sc(C)c2c1F', '[14*]c1ccc([14*])s1', '[14*]c1cc2c([16*])c3sc(C)cc3c([16*])c2s1', '.', '[7*]C(C#N)C#N', '[7*]C1C(=O)c2ccccc2C1[7*]', '[7*]C[8*]', '[8*]CCCCCC', '[14*]c1cc2c(s1)-c1cc3c(cc1C2(c1ccc([16*])cc1)c1ccc([16*])cc1)-c1sc([14*])cc1C3(c1ccc([16*])cc1)c1ccc([16*])cc1']","[0, 0, 0, 0, 2, 3, 4, 5, 35, 7, 9, 1, 10, 11, 12, 13, 38]"
PTB7-Th,IEIC,-5.204782608695651,-3.5391891891891896,-5.455,-3.8625,0.667,o-DCB,_,25.0,PEDOT:PSS,PDIN,6.31,6.31,0.97,48.0,"['[3*]O[3*]', '[4*]CC(CC)CCCC', '[1*]C([6*])=O', '[8*]CC(CC)CCCC', '[14*]c1sc2c([14*])sc(C)c2c1F', '[14*]c1ccc([14*])s1', '[14*]c1cc2c([16*])c3sc(C)cc3c([16*])c2s1']","['[7*]C(C#N)C#N', '[7*]C1C(=O)c2ccccc2C1[7*]', '[7*]C[8*]', '[8*]CC(CC)CCCC', '[8*]CCCCCC', '[14*]c1cc([16*])c([14*])s1', '[14*]c1cc2c(s1)-c1cc3c(cc1C2(c1ccc([16*])cc1)c1ccc([16*])cc1)-c1sc([14*])cc1C3(c1ccc([16*])cc1)c1ccc([16*])cc1']","['[3*]O[3*]', '[4*]CC(CC)CCCC', '[1*]C([6*])=O', '[8*]CC(CC)CCCC', '[14*]c1sc2c([14*])sc(C)c2c1F', '[14*]c1ccc([14*])s1', '[14*]c1cc2c([16*])c3sc(C)cc3c([16*])c2s1', '.', '[7*]C(C#N)C#N', '[7*]C1C(=O)c2ccccc2C1[7*]', '[7*]C[8*]', '[8*]CC(CC)CCCC', '[8*]CCCCCC', '[14*]c1cc([16*])c([14*])s1', '[14*]c1cc2c(s1)-c1cc3c(cc1C2(c1ccc([16*])cc1)c1ccc([16*])cc1)-c1sc([14*])cc1C3(c1ccc([16*])cc1)c1ccc([16*])cc1']","[0, 0, 2, 3, 4, 5, 35, 7, 9, 1, 10, 11, 12, 5, 13, 34, 38]"
PTB7-Th,IDT-N,-5.204782608695651,-3.5391891891891896,-5.73,-4.08,1.0,CF,_,100.0,PEDOT:PSS,PNDIT-F3N-Br,5.5,5.48,0.73,57.7,"['[3*]O[3*]', '[4*]CC(CC)CCCC', '[1*]C([6*])=O', '[8*]CC(CC)CCCC', '[14*]c1sc2c([14*])sc(C)c2c1F', '[14*]c1ccc([14*])s1', '[14*]c1cc2c([16*])c3sc(C)cc3c([16*])c2s1']","['[7*]C(C#N)C#N', '[7*]C1C(=O)c2cc3ccccc3cc2C1[7*]', '[7*]C[8*]', '[8*]CCCCCC', '[14*]c1cc2c(s1)-c1cc3c(cc1C2(c1ccc([16*])cc1)c1ccc([16*])cc1)-c1sc([14*])cc1C3(c1ccc([16*])cc1)c1ccc([16*])cc1']","['[3*]O[3*]', '[4*]CC(CC)CCCC', '[1*]C([6*])=O', '[8*]CC(CC)CCCC', '[14*]c1sc2c([14*])sc(C)c2c1F', '[14*]c1ccc([14*])s1', '[14*]c1cc2c([16*])c3sc(C)cc3c([16*])c2s1', '.', '[7*]C(C#N)C#N', '[7*]C1C(=O)c2cc3ccccc3cc2C1[7*]', '[7*]C[8*]', '[8*]CCCCCC', '[14*]c1cc2c(s1)-c1cc3c(cc1C2(c1ccc([16*])cc1)c1ccc([16*])cc1)-c1sc([14*])cc1C3(c1ccc([16*])cc1)c1ccc([16*])cc1']","[0, 0, 0, 0, 2, 3, 4, 5, 35, 7, 9, 1, 10, 40, 12, 13, 38]"
PTB7-Th,IDT-T-N,-5.204782608695651,-3.5391891891891896,-5.58,-4.06,1.0,CF,CN,100.0,PEDOT:PSS,PNDIT-F3N-Br,6.6,6.56,0.87,51.38,"['[3*]O[3*]', '[4*]CC(CC)CCCC', '[1*]C([6*])=O', '[8*]CC(CC)CCCC', '[14*]c1sc2c([14*])sc(C)c2c1F', '[14*]c1ccc([14*])s1', '[14*]c1cc2c([16*])c3sc(C)cc3c([16*])c2s1']","['[7*]C(C#N)C#N', '[7*]C1C(=O)c2cc3ccccc3cc2C1[7*]', '[7*]C[8*]', '[8*]CC(CC)CCCC', '[8*]CCCCCC', '[14*]c1cc([16*])c([14*])s1', '[14*]c1cc2c(s1)-c1cc3c(cc1C2(c1ccc([16*])cc1)c1ccc([16*])cc1)-c1sc([14*])cc1C3(c1ccc([16*])cc1)c1ccc([16*])cc1']","['[3*]O[3*]', '[4*]CC(CC)CCCC', '[1*]C([6*])=O', '[8*]CC(CC)CCCC', '[14*]c1sc2c([14*])sc(C)c2c1F', '[14*]c1ccc([14*])s1', '[14*]c1cc2c([16*])c3sc(C)cc3c([16*])c2s1', '.', '[7*]C(C#N)C#N', '[7*]C1C(=O)c2cc3ccccc3cc2C1[7*]', '[7*]C[8*]', '[8*]CC(CC)CCCC', '[8*]CCCCCC', '[14*]c1cc([16*])c([14*])s1', '[14*]c1cc2c(s1)-c1cc3c(cc1C2(c1ccc([16*])cc1)c1ccc([16*])cc1)-c1sc([14*])cc1C3(c1ccc([16*])cc1)c1ccc([16*])cc1']","[0, 0, 2, 3, 4, 5, 35, 7, 9, 1, 10, 40, 12, 5, 13, 34, 38]"
PBDB-T,IDT-N,-5.297714285714285,-3.4170000000000003,-5.73,-4.08,1.0,CF,CN,100.0,PEDOT:PSS,PNDIT-F3N-Br,8.99,9.02,0.79,71.91,"['[8*]CC(CC)CCCC', '[14*]c1ccc(C)s1', '[14*]c1ccc([14*])s1', '[14*]c1sc([14*])c2c1C(=O)c1c([14*])sc([14*])c1C2=O', '[14*]c1cc2c([16*])c3sc(C)cc3c([16*])c2s1']","['[7*]C(C#N)C#N', '[7*]C1C(=O)c2cc3ccccc3cc2C1[7*]', '[7*]C[8*]', '[8*]CCCCCC', '[14*]c1cc2c(s1)-c1cc3c(cc1C2(c1ccc([16*])cc1)c1ccc([16*])cc1)-c1sc([14*])cc1C3(c1ccc([16*])cc1)c1ccc([16*])cc1']","['[8*]CC(CC)CCCC', '[14*]c1ccc(C)s1', '[14*]c1ccc([14*])s1', '[14*]c1sc([14*])c2c1C(=O)c1c([14*])sc([14*])c1C2=O', '[14*]c1cc2c([16*])c3sc(C)cc3c([16*])c2s1', '.', '[7*]C(C#N)C#N', '[7*]C1C(=O)c2cc3ccccc3cc2C1[7*]', '[7*]C[8*]', '[8*]CCCCCC', '[14*]c1cc2c(s1)-c1cc3c(cc1C2(c1ccc([16*])cc1)c1ccc([16*])cc1)-c1sc([14*])cc1C3(c1ccc([16*])cc1)c1ccc([16*])cc1']","[0, 0, 0, 0, 0, 0, 5, 6, 7, 30, 9, 1, 10, 40, 12, 13, 38]"
PBDB-T,IDT-T-N,-5.297714285714285,-3.4170000000000003,-5.58,-4.06,1.0,CF,CN,100.0,PEDOT:PSS,PNDIT-F3N-Br,7.4,7.4,0.94,56.11,"['[8*]CC(CC)CCCC', '[14*]c1ccc(C)s1', '[14*]c1ccc([14*])s1', '[14*]c1sc([14*])c2c1C(=O)c1c([14*])sc([14*])c1C2=O', '[14*]c1cc2c([16*])c3sc(C)cc3c([16*])c2s1']","['[7*]C(C#N)C#N', '[7*]C1C(=O)c2cc3ccccc3cc2C1[7*]', '[7*]C[8*]', '[8*]CC(CC)CCCC', '[8*]CCCCCC', '[14*]c1cc([16*])c([14*])s1', '[14*]c1cc2c(s1)-c1cc3c(cc1C2(c1ccc([16*])cc1)c1ccc([16*])cc1)-c1sc([14*])cc1C3(c1ccc([16*])cc1)c1ccc([16*])cc1']","['[8*]CC(CC)CCCC', '[14*]c1ccc(C)s1', '[14*]c1ccc([14*])s1', '[14*]c1sc([14*])c2c1C(=O)c1c([14*])sc([14*])c1C2=O', '[14*]c1cc2c([16*])c3sc(C)cc3c([16*])c2s1', '.', '[7*]C(C#N)C#N', '[7*]C1C(=O)c2cc3ccccc3cc2C1[7*]', '[7*]C[8*]', '[8*]CC(CC)CCCC', '[8*]CCCCCC', '[14*]c1cc([16*])c([14*])s1', '[14*]c1cc2c(s1)-c1cc3c(cc1C2(c1ccc([16*])cc1)c1ccc([16*])cc1)-c1sc([14*])cc1C3(c1ccc([16*])cc1)c1ccc([16*])cc1']","[0, 0, 0, 0, 5, 6, 7, 30, 9, 1, 10, 40, 12, 5, 13, 34, 38]"
PBDB-T,IDT-EDOT,-5.297714285714285,-3.4170000000000003,-5.43,-3.8,0.833,o-DCB,DIO,25.0,MoOx,ZnO,11.32,11.38,0.86,62.0,"['[8*]CC(CC)CCCC', '[14*]c1ccc(C)s1', '[14*]c1ccc([14*])s1', '[14*]c1sc([14*])c2c1C(=O)c1c([14*])sc([14*])c1C2=O', '[14*]c1cc2c([16*])c3sc(C)cc3c([16*])c2s1']","['[7*]C(C#N)C#N', '[7*]C1C(=O)c2cc(F)c(F)cc2C1[7*]', '[7*]C[8*]', '[8*]CCCCCC', '[14*]c1sc([14*])c2c1OCCO2', '[14*]c1cc2c(s1)-c1cc3c(cc1C2(c1ccc([16*])cc1)c1ccc([16*])cc1)-c1sc([14*])cc1C3(c1ccc([16*])cc1)c1ccc([16*])cc1']","['[8*]CC(CC)CCCC', '[14*]c1ccc(C)s1', '[14*]c1ccc([14*])s1', '[14*]c1sc([14*])c2c1C(=O)c1c([14*])sc([14*])c1C2=O', '[14*]c1cc2c([16*])c3sc(C)cc3c([16*])c2s1', '.', '[7*]C(C#N)C#N', '[7*]C1C(=O)c2cc(F)c(F)cc2C1[7*]', '[7*]C[8*]', '[8*]CCCCCC', '[14*]c1sc([14*])c2c1OCCO2', '[14*]c1cc2c(s1)-c1cc3c(cc1C2(c1ccc([16*])cc1)c1ccc([16*])cc1)-c1sc([14*])cc1C3(c1ccc([16*])cc1)c1ccc([16*])cc1']","[0, 0, 0, 0, 0, 5, 6, 7, 30, 9, 1, 10, 42, 12, 13, 156, 38]"
PBDB-T,IDT-PDOT,-5.297714285714285,-3.4170000000000003,-5.39,-3.77,2.0,o-DCB,_,25.0,MoOx,ZnO,2.18,2.19,0.85,48.9,"['[8*]CC(CC)CCCC', '[14*]c1ccc(C)s1', '[14*]c1ccc([14*])s1', '[14*]c1sc([14*])c2c1C(=O)c1c([14*])sc([14*])c1C2=O', '[14*]c1cc2c([16*])c3sc(C)cc3c([16*])c2s1']","['[7*]C(C#N)C#N', '[7*]C1C(=O)c2cc(F)c(F)cc2C1[7*]', '[7*]C[8*]', '[8*]CCCCCC', '[14*]c1sc([14*])c2c1OCCCO2', '[14*]c1cc2c(s1)-c1cc3c(cc1C2(c1ccc([16*])cc1)c1ccc([16*])cc1)-c1sc([14*])cc1C3(c1ccc([16*])cc1)c1ccc([16*])cc1']","['[8*]CC(CC)CCCC', '[14*]c1ccc(C)s1', '[14*]c1ccc([14*])s1', '[14*]c1sc([14*])c2c1C(=O)c1c([14*])sc([14*])c1C2=O', '[14*]c1cc2c([16*])c3sc(C)cc3c([16*])c2s1', '.', '[7*]C(C#N)C#N', '[7*]C1C(=O)c2cc(F)c(F)cc2C1[7*]', '[7*]C[8*]', '[8*]CCCCCC', '[14*]c1sc([14*])c2c1OCCCO2', '[14*]c1cc2c(s1)-c1cc3c(cc1C2(c1ccc([16*])cc1)c1ccc([16*])cc1)-c1sc([14*])cc1C3(c1ccc([16*])cc1)c1ccc([16*])cc1']","[0, 0, 0, 0, 0, 5, 6, 7, 30, 9, 1, 10, 42, 12, 13, 157, 38]"
PTB7-Th,p-IDTIDT-IC,-5.204782608695651,-3.5391891891891896,-5.42,-3.82,0.667,o-DCB,_,150.0,PEDOT:PSS,PDINO,6.48,6.47,0.94,47.5,"['[3*]O[3*]', '[4*]CC(CC)CCCC', '[1*]C([6*])=O', '[8*]CC(CC)CCCC', '[14*]c1sc2c([14*])sc(C)c2c1F', '[14*]c1ccc([14*])s1', '[14*]c1cc2c([16*])c3sc(C)cc3c([16*])c2s1']","['[7*]C(C#N)C#N', '[7*]C1C(=O)c2ccccc2C1[7*]', '[7*]C[8*]', '[8*]CCCCCC', '[14*]c1cc2c(s1)-c1cc3c(cc1C2(c1ccc([16*])cc1)c1ccc([16*])cc1)-c1sc2c4c(sc2c1C3(c1ccc([16*])cc1)c1ccc([16*])cc1)-c1cc2c(cc1C4(c1ccc([16*])cc1)c1ccc([16*])cc1)-c1sc([14*])cc1C2(c1ccc([16*])cc1)c1ccc([16*])cc1']","['[3*]O[3*]', '[4*]CC(CC)CCCC', '[1*]C([6*])=O', '[8*]CC(CC)CCCC', '[14*]c1sc2c([14*])sc(C)c2c1F', '[14*]c1ccc([14*])s1', '[14*]c1cc2c([16*])c3sc(C)cc3c([16*])c2s1', '.', '[7*]C(C#N)C#N', '[7*]C1C(=O)c2ccccc2C1[7*]', '[7*]C[8*]', '[8*]CCCCCC', '[14*]c1cc2c(s1)-c1cc3c(cc1C2(c1ccc([16*])cc1)c1ccc([16*])cc1)-c1sc2c4c(sc2c1C3(c1ccc([16*])cc1)c1ccc([16*])cc1)-c1cc2c(cc1C4(c1ccc([16*])cc1)c1ccc([16*])cc1)-c1sc([14*])cc1C2(c1ccc([16*])cc1)c1ccc([16*])cc1']","[0, 0, 0, 0, 2, 3, 4, 5, 35, 7, 9, 1, 10, 11, 12, 13, 158]"
PBDB-TF,IDT-C6,-5.497142857142857,-3.6428571428571423,-5.59,-3.35,1.0,CF,DIO,100.0,PEDOT:PSS,PFN-Br,12.5,12.43,0.96,74.0,"['[8*]CC(CC)CCCC', '[14*]c1ccc(C)s1', '[14*]c1cc(F)c([14*])s1', '[14*]c1sc([14*])c2c1C(=O)c1c([14*])sc([14*])c1C2=O', '[14*]c1ccc([14*])s1', '[14*]c1cc2c([16*])c3sc(C)cc3c([16*])c2s1']","['[7*]C(C#N)C#N', '[7*]C1C(=O)c2ccc(C)cc2C1[7*]', '[7*]C[8*]', '[14*]c1cc2c(s1)-c1cc3c(cc1C2(CCCCCC)CCCCCC)-c1sc([14*])cc1C3(CCCCCC)CCCCCC']","['[8*]CC(CC)CCCC', '[14*]c1ccc(C)s1', '[14*]c1cc(F)c([14*])s1', '[14*]c1sc([14*])c2c1C(=O)c1c([14*])sc([14*])c1C2=O', '[14*]c1ccc([14*])s1', '[14*]c1cc2c([16*])c3sc(C)cc3c([16*])c2s1', '.', '[7*]C(C#N)C#N', '[7*]C1C(=O)c2ccc(C)cc2C1[7*]', '[7*]C[8*]', '[14*]c1cc2c(s1)-c1cc3c(cc1C2(CCCCCC)CCCCCC)-c1sc([14*])cc1C3(CCCCCC)CCCCCC']","[0, 0, 0, 0, 0, 0, 5, 6, 24, 30, 7, 9, 1, 10, 16, 12, 29]"
PBDB-TF,IDT-PhC6,-5.497142857142857,-3.6428571428571423,-5.56,-3.32,1.0,CF,DIO,100.0,PEDOT:PSS,PFN-Br,5.6,5.59,1.0,43.0,"['[8*]CC(CC)CCCC', '[14*]c1ccc(C)s1', '[14*]c1cc(F)c([14*])s1', '[14*]c1sc([14*])c2c1C(=O)c1c([14*])sc([14*])c1C2=O', '[14*]c1ccc([14*])s1', '[14*]c1cc2c([16*])c3sc(C)cc3c([16*])c2s1']","['[7*]C(C#N)C#N', '[7*]C1C(=O)c2ccc(C)cc2C1[7*]', '[7*]C[8*]', '[8*]CCCCCC', '[14*]c1cc2c(s1)-c1cc3c(cc1C2(c1ccc([16*])cc1)c1ccc([16*])cc1)-c1sc([14*])cc1C3(c1ccc([16*])cc1)c1ccc([16*])cc1']","['[8*]CC(CC)CCCC', '[14*]c1ccc(C)s1', '[14*]c1cc(F)c([14*])s1', '[14*]c1sc([14*])c2c1C(=O)c1c([14*])sc([14*])c1C2=O', '[14*]c1ccc([14*])s1', '[14*]c1cc2c([16*])c3sc(C)cc3c([16*])c2s1', '.', '[7*]C(C#N)C#N', '[7*]C1C(=O)c2ccc(C)cc2C1[7*]', '[7*]C[8*]', '[8*]CCCCCC', '[14*]c1cc2c(s1)-c1cc3c(cc1C2(c1ccc([16*])cc1)c1ccc([16*])cc1)-c1sc([14*])cc1C3(c1ccc([16*])cc1)c1ccc([16*])cc1']","[0, 0, 0, 0, 0, 5, 6, 24, 30, 7, 9, 1, 10, 16, 12, 13, 38]"
PTB7-Th,IDT-2BM,-5.204782608695651,-3.5391891891891896,-5.586666666666666,-4.083333333333333,0.667,CB,DPE,25.0,MoOx,ZnO,3.97,3.99,0.826,52.0,"['[3*]O[3*]', '[4*]CC(CC)CCCC', '[1*]C([6*])=O', '[8*]CC(CC)CCCC', '[14*]c1sc2c([14*])sc(C)c2c1F', '[14*]c1ccc([14*])s1', '[14*]c1cc2c([16*])c3sc(C)cc3c([16*])c2s1']","['[7*]C(C#N)C#N', '[7*]C[8*]', '[8*]CCCCCC', '[16*]c1ccc([16*])c2nsnc12', '[14*]c1cc2c(s1)-c1cc3c(cc1C2(c1ccc([16*])cc1)c1ccc([16*])cc1)-c1sc([14*])cc1C3(c1ccc([16*])cc1)c1ccc([16*])cc1']","['[3*]O[3*]', '[4*]CC(CC)CCCC', '[1*]C([6*])=O', '[8*]CC(CC)CCCC', '[14*]c1sc2c([14*])sc(C)c2c1F', '[14*]c1ccc([14*])s1', '[14*]c1cc2c([16*])c3sc(C)cc3c([16*])c2s1', '.', '[7*]C(C#N)C#N', '[7*]C[8*]', '[8*]CCCCCC', '[16*]c1ccc([16*])c2nsnc12', '[14*]c1cc2c(s1)-c1cc3c(cc1C2(c1ccc([16*])cc1)c1ccc([16*])cc1)-c1sc([14*])cc1C3(c1ccc([16*])cc1)c1ccc([16*])cc1']","[0, 0, 0, 0, 2, 3, 4, 5, 35, 7, 9, 1, 10, 12, 13, 128, 38]"
PTB7-Th,DTNR,-5.204782608695651,-3.5391891891891896,-5.22,-3.5,0.667,CB,CN,25.0,MoOx,ZnO,9.51,9.51,1.08,56.0,"['[3*]O[3*]', '[4*]CC(CC)CCCC', '[1*]C([6*])=O', '[8*]CC(CC)CCCC', '[14*]c1sc2c([14*])sc(C)c2c1F', '[14*]c1ccc([14*])s1', '[14*]c1cc2c([16*])c3sc(C)cc3c([16*])c2s1']","['[8*]CC', '[7*]C1SC(=S)N([10*])C1=O', '[7*]C[8*]', '[16*]c1ccc([16*])c2nsnc12', '[14*]c1cc2c(s1)-c1c(ccc3c4c(ccc13)C(CC(CC)CCCC)(CC(CC)CCCC)c1cc([14*])sc1-4)C2(CC(CC)CCCC)CC(CC)CCCC']","['[3*]O[3*]', '[4*]CC(CC)CCCC', '[1*]C([6*])=O', '[8*]CC(CC)CCCC', '[14*]c1sc2c([14*])sc(C)c2c1F', '[14*]c1ccc([14*])s1', '[14*]c1cc2c([16*])c3sc(C)cc3c([16*])c2s1', '.', '[8*]CC', '[7*]C1SC(=S)N([10*])C1=O', '[7*]C[8*]', '[16*]c1ccc([16*])c2nsnc12', '[14*]c1cc2c(s1)-c1c(ccc3c4c(ccc13)C(CC(CC)CCCC)(CC(CC)CCCC)c1cc([14*])sc1-4)C2(CC(CC)CCCC)CC(CC)CCCC']","[0, 0, 0, 0, 2, 3, 4, 5, 35, 7, 9, 1, 22, 76, 12, 128, 160]"
PBDB-T,DTNIC6,-5.297714285714285,-3.4170000000000003,-5.87,-3.92,1.0,CB,_,25.0,MoOx,TiO2:TOPD,3.39,3.38,0.96,45.63,"['[8*]CC(CC)CCCC', '[14*]c1ccc(C)s1', '[14*]c1ccc([14*])s1', '[14*]c1sc([14*])c2c1C(=O)c1c([14*])sc([14*])c1C2=O', '[14*]c1cc2c([16*])c3sc(C)cc3c([16*])c2s1']","['[7*]C(C#N)C#N', '[7*]C1C(=O)c2ccccc2C1[7*]', '[7*]C[8*]', '[14*]c1cc2c(s1)-c1c(ccc3c4c(ccc13)C(CCCCCC)(CCCCCC)c1cc([14*])sc1-4)C2(CCCCCC)CCCCCC']","['[8*]CC(CC)CCCC', '[14*]c1ccc(C)s1', '[14*]c1ccc([14*])s1', '[14*]c1sc([14*])c2c1C(=O)c1c([14*])sc([14*])c1C2=O', '[14*]c1cc2c([16*])c3sc(C)cc3c([16*])c2s1', '.', '[7*]C(C#N)C#N', '[7*]C1C(=O)c2ccccc2C1[7*]', '[7*]C[8*]', '[14*]c1cc2c(s1)-c1c(ccc3c4c(ccc13)C(CCCCCC)(CCCCCC)c1cc([14*])sc1-4)C2(CCCCCC)CCCCCC']","[0, 0, 0, 0, 0, 0, 0, 5, 6, 7, 30, 9, 1, 10, 11, 12, 161]"
PBDB-T,DTNIC8,-5.297714285714285,-3.4170000000000003,-5.91,-3.93,1.0,CB,_,25.0,MoOx,TiO2:TOPD,9.03,9.03,0.96,72.84,"['[8*]CC(CC)CCCC', '[14*]c1ccc(C)s1', '[14*]c1ccc([14*])s1', '[14*]c1sc([14*])c2c1C(=O)c1c([14*])sc([14*])c1C2=O', '[14*]c1cc2c([16*])c3sc(C)cc3c([16*])c2s1']","['[7*]C(C#N)C#N', '[7*]C1C(=O)c2ccccc2C1[7*]', '[7*]C[8*]', '[14*]c1cc2c(s1)-c1c(ccc3c4c(ccc13)C(CC(CC)CCCC)(CC(CC)CCCC)c1cc([14*])sc1-4)C2(CC(CC)CCCC)CC(CC)CCCC']","['[8*]CC(CC)CCCC', '[14*]c1ccc(C)s1', '[14*]c1ccc([14*])s1', '[14*]c1sc([14*])c2c1C(=O)c1c([14*])sc([14*])c1C2=O', '[14*]c1cc2c([16*])c3sc(C)cc3c([16*])c2s1', '.', '[7*]C(C#N)C#N', '[7*]C1C(=O)c2ccccc2C1[7*]', '[7*]C[8*]', '[14*]c1cc2c(s1)-c1c(ccc3c4c(ccc13)C(CC(CC)CCCC)(CC(CC)CCCC)c1cc([14*])sc1-4)C2(CC(CC)CCCC)CC(CC)CCCC']","[0, 0, 0, 0, 0, 0, 0, 5, 6, 7, 30, 9, 1, 10, 11, 12, 160]"
P3HT,DNIT-TT2T,-5.057777777777777,-2.989444444444445,-5.94,-3.75,1.0,o-DCB,_,130.0,PEDOT:PSS,Ca,1.25,1.25,0.88,43.47,"['[8*]CCCCCC', '[14*]c1sc(C)cc1[16*]', '[14*]c1cc([16*])c(C)s1', '[14*]c1cc([16*])c([14*])s1']","['[8*]CC(CC)CCCC', '[8*]CCCCCC', '[14*]c1ccc([14*])s1', '[10*]N1C(=O)c2cccc3c([16*])ccc(c23)C1=O', '[14*]c1sc2c([16*])c([14*])sc2c1[16*]']","['[8*]CCCCCC', '[14*]c1sc(C)cc1[16*]', '[14*]c1cc([16*])c(C)s1', '[14*]c1cc([16*])c([14*])s1', '.', '[8*]CC(CC)CCCC', '[8*]CCCCCC', '[14*]c1ccc([14*])s1', '[10*]N1C(=O)c2cccc3c([16*])ccc(c23)C1=O', '[14*]c1sc2c([16*])c([14*])sc2c1[16*]']","[0, 0, 0, 0, 0, 0, 0, 13, 103, 57, 34, 1, 5, 13, 7, 89, 8]"
PTB7-Th,DICTF,-5.204782608695651,-3.5391891891891896,-5.67,-3.79,0.714,CF,_,100.0,PEDOT:PSS,PDIN,7.63,7.63,0.85,55.0,"['[3*]O[3*]', '[4*]CC(CC)CCCC', '[1*]C([6*])=O', '[8*]CC(CC)CCCC', '[14*]c1sc2c([14*])sc(C)c2c1F', '[14*]c1ccc([14*])s1', '[14*]c1cc2c([16*])c3sc(C)cc3c([16*])c2s1']","['[7*]C(C#N)C#N', '[7*]C1C(=O)c2ccccc2C1[7*]', '[7*]C[8*]', '[14*]c1ccc([14*])s1', '[16*]c1ccc2c(c1)C(CCCCCCCC)(CCCCCCCC)c1cc([16*])ccc1-2']","['[3*]O[3*]', '[4*]CC(CC)CCCC', '[1*]C([6*])=O', '[8*]CC(CC)CCCC', '[14*]c1sc2c([14*])sc(C)c2c1F', '[14*]c1ccc([14*])s1', '[14*]c1cc2c([16*])c3sc(C)cc3c([16*])c2s1', '.', '[7*]C(C#N)C#N', '[7*]C1C(=O)c2ccccc2C1[7*]', '[7*]C[8*]', '[14*]c1ccc([14*])s1', '[16*]c1ccc2c(c1)C(CCCCCCCC)(CCCCCCCC)c1cc([16*])ccc1-2']","[0, 0, 0, 0, 2, 3, 4, 5, 35, 7, 9, 1, 10, 11, 12, 7, 78]"
P1_BDT-TBT,PY1,-5.1,-3.48,-5.27,-4.0,0.5,CF,DIO,25.0,PEDOT:PSS,PFN-Br,4.89,4.89,0.83,56.0,"['[3*]OS[11*]', '[4*]CCCCCCCCCCCC', '[14*]c1cc2c([16*])c3sc(C)cc3c([16*])c2s1', '[14*]c1ccc(C)s1', '[14*]c1ccc([14*])s1', '[16*]c1ccc([16*])c2nsnc12']","['[8*]CCCC', '[7*]C1C(=O)N([10*])C(=O)C(C#N)C1C', '[8*]CCCCCCCCCCCCCCCCC', '[7*]C[8*]', '[8*]CCCCCC', '[14*]c1cc([16*])c([14*])s1', '[9*]n1c2cc([14*])sc2c2sc([14*])cc21']","['[3*]OS[11*]', '[4*]CCCCCCCCCCCC', '[14*]c1cc2c([16*])c3sc(C)cc3c([16*])c2s1', '[14*]c1ccc(C)s1', '[14*]c1ccc([14*])s1', '[16*]c1ccc([16*])c2nsnc12', '.', '[8*]CCCC', '[7*]C1C(=O)N([10*])C(=O)C(C#N)C1C', '[8*]CCCCCCCCCCCCCCCCC', '[7*]C[8*]', '[8*]CCCCCC', '[14*]c1cc([16*])c([14*])s1', '[9*]n1c2cc([14*])sc2c2sc([14*])cc21']","[0, 0, 0, 32, 26, 9, 6, 7, 128, 1, 162, 163, 164, 12, 13, 34, 165]"
PBDTTT-C-T,DC-IDT2F,-5.128,-3.268,-5.44,-3.88,2.0,o-DCB,_,25.0,MoOx,PEIE,3.08,3.08,0.96,50.8,"['[6*]C(=O)CC(CC)CCCC', '[8*]CC(CC)CCCC', '[14*]c1cc2c(C)sc([14*])c2s1', '[14*]c1ccc([14*])s1', '[14*]c1cc2c([16*])c3sc(C)cc3c([16*])c2s1']","['[7*]C(C#N)C#N', '[7*]C1C(=O)c2ccccc2C1[7*]', '[7*]C[8*]', '[8*]CCCCCC', '[14*]c1ccc([14*])o1', '[16*]c1ccc(C2(c3ccc([16*])cc3)c3cc([16*])ccc3-c3cc4c(cc32)-c2ccc([16*])cc2C4(c2ccc([16*])cc2)c2ccc([16*])cc2)cc1']","['[6*]C(=O)CC(CC)CCCC', '[8*]CC(CC)CCCC', '[14*]c1cc2c(C)sc([14*])c2s1', '[14*]c1ccc([14*])s1', '[14*]c1cc2c([16*])c3sc(C)cc3c([16*])c2s1', '.', '[7*]C(C#N)C#N', '[7*]C1C(=O)c2ccccc2C1[7*]', '[7*]C[8*]', '[8*]CCCCCC', '[14*]c1ccc([14*])o1', '[16*]c1ccc(C2(c3ccc([16*])cc3)c3cc([16*])ccc3-c3cc4c(cc32)-c2ccc([16*])cc2C4(c2ccc([16*])cc2)c2ccc([16*])cc2)cc1']","[0, 0, 0, 0, 0, 99, 5, 97, 7, 9, 1, 10, 11, 12, 13, 50, 155]"