Donor,Acceptor,HOMO_D_eV,LUMO_D_eV,HOMO_A_eV,LUMO_A_eV,D_A_ratio_m_m,solvent,solvent_additive,annealing_temperature,hole_contact_layer,electron_contact_layer,PCE_percent,calc_PCE_percent,Voc_V,FF_percent,Donor_BRICS,Acceptor_BRICS,DA_pair_BRICS,DA_tokenized_BRICS
PBDB-T,IDT-TN,-5.297714285714285,-3.4170000000000003,-5.42,-4.03,1.0,CB,CN,80.0,PEDOT:PSS,PNDIT-F3N-Br,5.77,5.77,0.967,45.17,"[<rdkit.Chem.rdchem.Mol object at 0x7f5838ca6c70>, <rdkit.Chem.rdchem.Mol object at 0x7f5838cb51c0>, <rdkit.Chem.rdchem.Mol object at 0x7f5838cb5770>, <rdkit.Chem.rdchem.Mol object at 0x7f5838cb5690>, <rdkit.Chem.rdchem.Mol object at 0x7f5838cb6420>]","[<rdkit.Chem.rdchem.Mol object at 0x7f5838cb6570>, <rdkit.Chem.rdchem.Mol object at 0x7f5838cb5cb0>, <rdkit.Chem.rdchem.Mol object at 0x7f5838cb5af0>, <rdkit.Chem.rdchem.Mol object at 0x7f5838cb5070>, <rdkit.Chem.rdchem.Mol object at 0x7f5838cb5620>, <rdkit.Chem.rdchem.Mol object at 0x7f5838cb4350>]","[<rdkit.Chem.rdchem.Mol object at 0x7f5838ca6c70>, <rdkit.Chem.rdchem.Mol object at 0x7f5838cb51c0>, <rdkit.Chem.rdchem.Mol object at 0x7f5838cb5770>, <rdkit.Chem.rdchem.Mol object at 0x7f5838cb5690>, <rdkit.Chem.rdchem.Mol object at 0x7f5838cb6420>, '.', <rdkit.Chem.rdchem.Mol object at 0x7f5838cb6570>, <rdkit.Chem.rdchem.Mol object at 0x7f5838cb5cb0>, <rdkit.Chem.rdchem.Mol object at 0x7f5838cb5af0>, <rdkit.Chem.rdchem.Mol object at 0x7f5838cb5070>, <rdkit.Chem.rdchem.Mol object at 0x7f5838cb5620>, <rdkit.Chem.rdchem.Mol object at 0x7f5838cb4350>]","[0, 0, 0, 0, 0, 5293, 5294, 5295, 5296, 5297, 1, 5298, 5299, 5300, 5301, 5302, 5303]"
PBDB-T,IT-M,-5.297714285714285,-3.4170000000000003,-5.513571428571429,-3.808,1.0,CB,DIO,25.0,PEDOT:PSS,PDINO,10.31,10.36,0.93,66.77,"[<rdkit.Chem.rdchem.Mol object at 0x7f5838ca6730>, <rdkit.Chem.rdchem.Mol object at 0x7f5838cb5380>, <rdkit.Chem.rdchem.Mol object at 0x7f5838cb53f0>, <rdkit.Chem.rdchem.Mol object at 0x7f5838cb5d20>, <rdkit.Chem.rdchem.Mol object at 0x7f5838cb6960>]","[<rdkit.Chem.rdchem.Mol object at 0x7f5838cb6c70>, <rdkit.Chem.rdchem.Mol object at 0x7f5838cb4900>, <rdkit.Chem.rdchem.Mol object at 0x7f5838cb6030>, <rdkit.Chem.rdchem.Mol object at 0x7f5838cb5850>, <rdkit.Chem.rdchem.Mol object at 0x7f5838cb55b0>]","[<rdkit.Chem.rdchem.Mol object at 0x7f5838ca6730>, <rdkit.Chem.rdchem.Mol object at 0x7f5838cb5380>, <rdkit.Chem.rdchem.Mol object at 0x7f5838cb53f0>, <rdkit.Chem.rdchem.Mol object at 0x7f5838cb5d20>, <rdkit.Chem.rdchem.Mol object at 0x7f5838cb6960>, '.', <rdkit.Chem.rdchem.Mol object at 0x7f5838cb6c70>, <rdkit.Chem.rdchem.Mol object at 0x7f5838cb4900>, <rdkit.Chem.rdchem.Mol object at 0x7f5838cb6030>, <rdkit.Chem.rdchem.Mol object at 0x7f5838cb5850>, <rdkit.Chem.rdchem.Mol object at 0x7f5838cb55b0>]","[0, 0, 0, 0, 0, 0, 5304, 5305, 5306, 5307, 5308, 1, 5309, 5310, 5311, 5312, 5313]"
PBDB-T,ITIC-Cl4,-5.297714285714285,-3.4170000000000003,-5.5,-3.9,1.0,o-DCB,CN,25.0,MoOx,ZnO,9.6,9.55,0.74,60.0,"[<rdkit.Chem.rdchem.Mol object at 0x7f5838ca7840>, <rdkit.Chem.rdchem.Mol object at 0x7f5838cb4c10>, <rdkit.Chem.rdchem.Mol object at 0x7f5838cb58c0>, <rdkit.Chem.rdchem.Mol object at 0x7f5838cb6260>, <rdkit.Chem.rdchem.Mol object at 0x7f5838cb6e30>]","[<rdkit.Chem.rdchem.Mol object at 0x7f5838cb7060>, <rdkit.Chem.rdchem.Mol object at 0x7f5838cb4660>, <rdkit.Chem.rdchem.Mol object at 0x7f5838cb67a0>, <rdkit.Chem.rdchem.Mol object at 0x7f5838cb5b60>, <rdkit.Chem.rdchem.Mol object at 0x7f5838cb4b30>]","[<rdkit.Chem.rdchem.Mol object at 0x7f5838ca7840>, <rdkit.Chem.rdchem.Mol object at 0x7f5838cb4c10>, <rdkit.Chem.rdchem.Mol object at 0x7f5838cb58c0>, <rdkit.Chem.rdchem.Mol object at 0x7f5838cb6260>, <rdkit.Chem.rdchem.Mol object at 0x7f5838cb6e30>, '.', <rdkit.Chem.rdchem.Mol object at 0x7f5838cb7060>, <rdkit.Chem.rdchem.Mol object at 0x7f5838cb4660>, <rdkit.Chem.rdchem.Mol object at 0x7f5838cb67a0>, <rdkit.Chem.rdchem.Mol object at 0x7f5838cb5b60>, <rdkit.Chem.rdchem.Mol object at 0x7f5838cb4b30>]","[0, 0, 0, 0, 0, 0, 5314, 5315, 5316, 5317, 5318, 1, 5319, 5320, 5321, 5322, 5323]"
PBDTS-TzBI,ITIC,-5.39,-3.52,-5.574146341463415,-3.915,1.0,CB,_,130.0,PEDOT:PSS,PFN-Br,9.04,8.88,0.94,56.2,"[<rdkit.Chem.rdchem.Mol object at 0x7f5838cb5150>, <rdkit.Chem.rdchem.Mol object at 0x7f5838cb5a80>, <rdkit.Chem.rdchem.Mol object at 0x7f5838cb66c0>, <rdkit.Chem.rdchem.Mol object at 0x7f5838cb6f80>, <rdkit.Chem.rdchem.Mol object at 0x7f5838cb65e0>, <rdkit.Chem.rdchem.Mol object at 0x7f5838cb6b20>, <rdkit.Chem.rdchem.Mol object at 0x7f5838cb6650>, <rdkit.Chem.rdchem.Mol object at 0x7f5838cb6730>]","[<rdkit.Chem.rdchem.Mol object at 0x7f5838cb6f10>, <rdkit.Chem.rdchem.Mol object at 0x7f5838cb4e40>, <rdkit.Chem.rdchem.Mol object at 0x7f5838cb46d0>, <rdkit.Chem.rdchem.Mol object at 0x7f5838cb69d0>, <rdkit.Chem.rdchem.Mol object at 0x7f5838cb63b0>]","[<rdkit.Chem.rdchem.Mol object at 0x7f5838cb5150>, <rdkit.Chem.rdchem.Mol object at 0x7f5838cb5a80>, <rdkit.Chem.rdchem.Mol object at 0x7f5838cb66c0>, <rdkit.Chem.rdchem.Mol object at 0x7f5838cb6f80>, <rdkit.Chem.rdchem.Mol object at 0x7f5838cb65e0>, <rdkit.Chem.rdchem.Mol object at 0x7f5838cb6b20>, <rdkit.Chem.rdchem.Mol object at 0x7f5838cb6650>, <rdkit.Chem.rdchem.Mol object at 0x7f5838cb6730>, '.', <rdkit.Chem.rdchem.Mol object at 0x7f5838cb6f10>, <rdkit.Chem.rdchem.Mol object at 0x7f5838cb4e40>, <rdkit.Chem.rdchem.Mol object at 0x7f5838cb46d0>, <rdkit.Chem.rdchem.Mol object at 0x7f5838cb69d0>, <rdkit.Chem.rdchem.Mol object at 0x7f5838cb63b0>]","[0, 0, 0, 5324, 5325, 5326, 5327, 5328, 5329, 5330, 5331, 1, 5332, 5333, 5334, 5335, 5336]"
PBDTS-TzBI,ITIC-Th,-5.39,-3.52,-5.673333333333334,-3.908888888888889,1.0,CB,_,130.0,PEDOT:PSS,PFN-Br,9.67,9.54,0.91,60.44,"[<rdkit.Chem.rdchem.Mol object at 0x7f5838cb5fc0>, <rdkit.Chem.rdchem.Mol object at 0x7f5838cb5930>, <rdkit.Chem.rdchem.Mol object at 0x7f5838cb6490>, <rdkit.Chem.rdchem.Mol object at 0x7f5838cb7300>, <rdkit.Chem.rdchem.Mol object at 0x7f5838cb7220>, <rdkit.Chem.rdchem.Mol object at 0x7f5838cb7290>, <rdkit.Chem.rdchem.Mol object at 0x7f5838cb5d90>, <rdkit.Chem.rdchem.Mol object at 0x7f5838cb6880>]","[<rdkit.Chem.rdchem.Mol object at 0x7f5838cb75a0>, <rdkit.Chem.rdchem.Mol object at 0x7f5838cb7140>, <rdkit.Chem.rdchem.Mol object at 0x7f5838cb6a40>, <rdkit.Chem.rdchem.Mol object at 0x7f5838cb68f0>, <rdkit.Chem.rdchem.Mol object at 0x7f5838cb71b0>]","[<rdkit.Chem.rdchem.Mol object at 0x7f5838cb5fc0>, <rdkit.Chem.rdchem.Mol object at 0x7f5838cb5930>, <rdkit.Chem.rdchem.Mol object at 0x7f5838cb6490>, <rdkit.Chem.rdchem.Mol object at 0x7f5838cb7300>, <rdkit.Chem.rdchem.Mol object at 0x7f5838cb7220>, <rdkit.Chem.rdchem.Mol object at 0x7f5838cb7290>, <rdkit.Chem.rdchem.Mol object at 0x7f5838cb5d90>, <rdkit.Chem.rdchem.Mol object at 0x7f5838cb6880>, '.', <rdkit.Chem.rdchem.Mol object at 0x7f5838cb75a0>, <rdkit.Chem.rdchem.Mol object at 0x7f5838cb7140>, <rdkit.Chem.rdchem.Mol object at 0x7f5838cb6a40>, <rdkit.Chem.rdchem.Mol object at 0x7f5838cb68f0>, <rdkit.Chem.rdchem.Mol object at 0x7f5838cb71b0>]","[0, 0, 0, 5337, 5338, 5339, 5340, 5341, 5342, 5343, 5344, 1, 5345, 5346, 5347, 5348, 5349]"
PBDB-T,IT-DM,-5.297714285714285,-3.4170000000000003,-5.515,-3.855,0.75,CB,_,160.0,PEDOT:PSS,PFN-Br,10.41,10.41,0.95,68.7,"[<rdkit.Chem.rdchem.Mol object at 0x7f5838cb73e0>, <rdkit.Chem.rdchem.Mol object at 0x7f5838cb7ca0>, <rdkit.Chem.rdchem.Mol object at 0x7f5838cb6810>, <rdkit.Chem.rdchem.Mol object at 0x7f5838cc4ba0>, <rdkit.Chem.rdchem.Mol object at 0x7f5838cc4e40>]","[<rdkit.Chem.rdchem.Mol object at 0x7f5838cb4c80>, <rdkit.Chem.rdchem.Mol object at 0x7f5838cb7680>, <rdkit.Chem.rdchem.Mol object at 0x7f5838cb7d10>, <rdkit.Chem.rdchem.Mol object at 0x7f5838cb6500>, <rdkit.Chem.rdchem.Mol object at 0x7f5838cc4430>]","[<rdkit.Chem.rdchem.Mol object at 0x7f5838cb73e0>, <rdkit.Chem.rdchem.Mol object at 0x7f5838cb7ca0>, <rdkit.Chem.rdchem.Mol object at 0x7f5838cb6810>, <rdkit.Chem.rdchem.Mol object at 0x7f5838cc4ba0>, <rdkit.Chem.rdchem.Mol object at 0x7f5838cc4e40>, '.', <rdkit.Chem.rdchem.Mol object at 0x7f5838cb4c80>, <rdkit.Chem.rdchem.Mol object at 0x7f5838cb7680>, <rdkit.Chem.rdchem.Mol object at 0x7f5838cb7d10>, <rdkit.Chem.rdchem.Mol object at 0x7f5838cb6500>, <rdkit.Chem.rdchem.Mol object at 0x7f5838cc4430>]","[0, 0, 0, 0, 0, 0, 5380, 5381, 5382, 5383, 5384, 1, 5385, 5386, 5387, 5388, 5389]"
PBDB-T,SN6IC,-5.297714285714285,-3.4170000000000003,-5.38,-3.93,1.0,CB,DIO,25.0,PEDOT:PSS,C60-bissalt,9.6,9.58,0.88,66.0,"[<rdkit.Chem.rdchem.Mol object at 0x7f5838cb7a00>, <rdkit.Chem.rdchem.Mol object at 0x7f5838cc4f90>, <rdkit.Chem.rdchem.Mol object at 0x7f5838cc4900>, <rdkit.Chem.rdchem.Mol object at 0x7f5838cc4b30>, <rdkit.Chem.rdchem.Mol object at 0x7f5838cc5310>]","[<rdkit.Chem.rdchem.Mol object at 0x7f5838cb5e70>, <rdkit.Chem.rdchem.Mol object at 0x7f5838cc5380>, <rdkit.Chem.rdchem.Mol object at 0x7f5838cb7bc0>, <rdkit.Chem.rdchem.Mol object at 0x7f5838cb6340>, <rdkit.Chem.rdchem.Mol object at 0x7f5838cc4350>]","[<rdkit.Chem.rdchem.Mol object at 0x7f5838cb7a00>, <rdkit.Chem.rdchem.Mol object at 0x7f5838cc4f90>, <rdkit.Chem.rdchem.Mol object at 0x7f5838cc4900>, <rdkit.Chem.rdchem.Mol object at 0x7f5838cc4b30>, <rdkit.Chem.rdchem.Mol object at 0x7f5838cc5310>, '.', <rdkit.Chem.rdchem.Mol object at 0x7f5838cb5e70>, <rdkit.Chem.rdchem.Mol object at 0x7f5838cc5380>, <rdkit.Chem.rdchem.Mol object at 0x7f5838cb7bc0>, <rdkit.Chem.rdchem.Mol object at 0x7f5838cb6340>, <rdkit.Chem.rdchem.Mol object at 0x7f5838cc4350>]","[0, 0, 0, 0, 0, 0, 5390, 5391, 5392, 5393, 5394, 1, 5395, 5396, 5397, 5398, 5399]"
PBDB-T,SN6IC-4F,-5.297714285714285,-3.4170000000000003,-5.52,-4.11,1.0,CB,DIO,25.0,PEDOT:PSS,C60-bissalt,13.2,13.21,0.78,73.0,"[<rdkit.Chem.rdchem.Mol object at 0x7f5838cb5f50>, <rdkit.Chem.rdchem.Mol object at 0x7f5838cc5620>, <rdkit.Chem.rdchem.Mol object at 0x7f5838cc5150>, <rdkit.Chem.rdchem.Mol object at 0x7f5838cc4820>, <rdkit.Chem.rdchem.Mol object at 0x7f5838cc5850>]","[<rdkit.Chem.rdchem.Mol object at 0x7f5838cb6ff0>, <rdkit.Chem.rdchem.Mol object at 0x7f5838cc5700>, <rdkit.Chem.rdchem.Mol object at 0x7f5838cb61f0>, <rdkit.Chem.rdchem.Mol object at 0x7f5838cc58c0>, <rdkit.Chem.rdchem.Mol object at 0x7f5838cc47b0>]","[<rdkit.Chem.rdchem.Mol object at 0x7f5838cb5f50>, <rdkit.Chem.rdchem.Mol object at 0x7f5838cc5620>, <rdkit.Chem.rdchem.Mol object at 0x7f5838cc5150>, <rdkit.Chem.rdchem.Mol object at 0x7f5838cc4820>, <rdkit.Chem.rdchem.Mol object at 0x7f5838cc5850>, '.', <rdkit.Chem.rdchem.Mol object at 0x7f5838cb6ff0>, <rdkit.Chem.rdchem.Mol object at 0x7f5838cc5700>, <rdkit.Chem.rdchem.Mol object at 0x7f5838cb61f0>, <rdkit.Chem.rdchem.Mol object at 0x7f5838cc58c0>, <rdkit.Chem.rdchem.Mol object at 0x7f5838cc47b0>]","[0, 0, 0, 0, 0, 0, 5400, 5401, 5402, 5403, 5404, 1, 5405, 5406, 5407, 5408, 5409]"
PTB7-Th,ITIC,-5.204782608695651,-3.5391891891891896,-5.574146341463415,-3.915,0.5,CB,_,25.0,MoOx,ZnO,7.8,7.84,0.825,66.0,"[<rdkit.Chem.rdchem.Mol object at 0x7f5838cb7530>, <rdkit.Chem.rdchem.Mol object at 0x7f5838cb4a50>, <rdkit.Chem.rdchem.Mol object at 0x7f5838cb7e60>, <rdkit.Chem.rdchem.Mol object at 0x7f5838cb7450>, <rdkit.Chem.rdchem.Mol object at 0x7f5838cc4c80>, <rdkit.Chem.rdchem.Mol object at 0x7f5838cc5a80>, <rdkit.Chem.rdchem.Mol object at 0x7f5838cc44a0>]","[<rdkit.Chem.rdchem.Mol object at 0x7f5838cc5460>, <rdkit.Chem.rdchem.Mol object at 0x7f5838cc53f0>, <rdkit.Chem.rdchem.Mol object at 0x7f5838cb57e0>, <rdkit.Chem.rdchem.Mol object at 0x7f5838cc4970>, <rdkit.Chem.rdchem.Mol object at 0x7f5838cc40b0>]","[<rdkit.Chem.rdchem.Mol object at 0x7f5838cb7530>, <rdkit.Chem.rdchem.Mol object at 0x7f5838cb4a50>, <rdkit.Chem.rdchem.Mol object at 0x7f5838cb7e60>, <rdkit.Chem.rdchem.Mol object at 0x7f5838cb7450>, <rdkit.Chem.rdchem.Mol object at 0x7f5838cc4c80>, <rdkit.Chem.rdchem.Mol object at 0x7f5838cc5a80>, <rdkit.Chem.rdchem.Mol object at 0x7f5838cc44a0>, '.', <rdkit.Chem.rdchem.Mol object at 0x7f5838cc5460>, <rdkit.Chem.rdchem.Mol object at 0x7f5838cc53f0>, <rdkit.Chem.rdchem.Mol object at 0x7f5838cb57e0>, <rdkit.Chem.rdchem.Mol object at 0x7f5838cc4970>, <rdkit.Chem.rdchem.Mol object at 0x7f5838cc40b0>]","[0, 0, 0, 0, 5410, 5411, 5412, 5413, 5414, 5415, 5416, 1, 5417, 5418, 5419, 5420, 5421]"
PTB7-Th,IDTT-T,-5.204782608695651,-3.5391891891891896,-5.51,-3.51,0.5,CB,_,25.0,MoOx,ZnO,9.1,9.08,1.015,57.0,"[<rdkit.Chem.rdchem.Mol object at 0x7f5838cb78b0>, <rdkit.Chem.rdchem.Mol object at 0x7f5838cc5bd0>, <rdkit.Chem.rdchem.Mol object at 0x7f5838cc5c40>, <rdkit.Chem.rdchem.Mol object at 0x7f5838cc50e0>, <rdkit.Chem.rdchem.Mol object at 0x7f5838cc49e0>, <rdkit.Chem.rdchem.Mol object at 0x7f5838cc45f0>, <rdkit.Chem.rdchem.Mol object at 0x7f5838cc59a0>]","[<rdkit.Chem.rdchem.Mol object at 0x7f5838cc5af0>, <rdkit.Chem.rdchem.Mol object at 0x7f5838cc5070>, <rdkit.Chem.rdchem.Mol object at 0x7f5838cc5690>, <rdkit.Chem.rdchem.Mol object at 0x7f5838cc4d60>, <rdkit.Chem.rdchem.Mol object at 0x7f5838cc5930>]","[<rdkit.Chem.rdchem.Mol object at 0x7f5838cb78b0>, <rdkit.Chem.rdchem.Mol object at 0x7f5838cc5bd0>, <rdkit.Chem.rdchem.Mol object at 0x7f5838cc5c40>, <rdkit.Chem.rdchem.Mol object at 0x7f5838cc50e0>, <rdkit.Chem.rdchem.Mol object at 0x7f5838cc49e0>, <rdkit.Chem.rdchem.Mol object at 0x7f5838cc45f0>, <rdkit.Chem.rdchem.Mol object at 0x7f5838cc59a0>, '.', <rdkit.Chem.rdchem.Mol object at 0x7f5838cc5af0>, <rdkit.Chem.rdchem.Mol object at 0x7f5838cc5070>, <rdkit.Chem.rdchem.Mol object at 0x7f5838cc5690>, <rdkit.Chem.rdchem.Mol object at 0x7f5838cc4d60>, <rdkit.Chem.rdchem.Mol object at 0x7f5838cc5930>]","[0, 0, 0, 0, 5422, 5423, 5424, 5425, 5426, 5427, 5428, 1, 5429, 5430, 5431, 5432, 5433]"
PBDB-T,O-NTIC,-5.297714285714285,-3.4170000000000003,-5.51,-3.67,1.25,CB,DIO,25.0,PEDOT:PSS,PDINO,9.1,9.1,0.978,69.9,"[<rdkit.Chem.rdchem.Mol object at 0x7f5838cc4890>, <rdkit.Chem.rdchem.Mol object at 0x7f5838cc6f80>, <rdkit.Chem.rdchem.Mol object at 0x7f5838cc6730>, <rdkit.Chem.rdchem.Mol object at 0x7f5838cc66c0>, <rdkit.Chem.rdchem.Mol object at 0x7f5838cc7680>]","[<rdkit.Chem.rdchem.Mol object at 0x7f5838cc7450>, <rdkit.Chem.rdchem.Mol object at 0x7f5838cc75a0>, <rdkit.Chem.rdchem.Mol object at 0x7f5838cc6340>, <rdkit.Chem.rdchem.Mol object at 0x7f5838cc7140>, <rdkit.Chem.rdchem.Mol object at 0x7f5838cc5b60>, <rdkit.Chem.rdchem.Mol object at 0x7f5838cc43c0>]","[<rdkit.Chem.rdchem.Mol object at 0x7f5838cc4890>, <rdkit.Chem.rdchem.Mol object at 0x7f5838cc6f80>, <rdkit.Chem.rdchem.Mol object at 0x7f5838cc6730>, <rdkit.Chem.rdchem.Mol object at 0x7f5838cc66c0>, <rdkit.Chem.rdchem.Mol object at 0x7f5838cc7680>, '.', <rdkit.Chem.rdchem.Mol object at 0x7f5838cc7450>, <rdkit.Chem.rdchem.Mol object at 0x7f5838cc75a0>, <rdkit.Chem.rdchem.Mol object at 0x7f5838cc6340>, <rdkit.Chem.rdchem.Mol object at 0x7f5838cc7140>, <rdkit.Chem.rdchem.Mol object at 0x7f5838cc5b60>, <rdkit.Chem.rdchem.Mol object at 0x7f5838cc43c0>]","[0, 0, 0, 0, 0, 5464, 5465, 5466, 5467, 5468, 1, 5469, 5470, 5471, 5472, 5473, 5474]"
PBDB-T,O-NTNC,-5.297714285714285,-3.4170000000000003,-5.54,-3.78,1.25,CB,DIO,25.0,PEDOT:PSS,PDINO,11.04,11.05,0.942,73.4,"[<rdkit.Chem.rdchem.Mol object at 0x7f5838cc6110>, <rdkit.Chem.rdchem.Mol object at 0x7f5838cc5cb0>, <rdkit.Chem.rdchem.Mol object at 0x7f5838cc5000>, <rdkit.Chem.rdchem.Mol object at 0x7f5838cc7300>, <rdkit.Chem.rdchem.Mol object at 0x7f5838cc7bc0>]","[<rdkit.Chem.rdchem.Mol object at 0x7f5838cc6490>, <rdkit.Chem.rdchem.Mol object at 0x7f5838cc7760>, <rdkit.Chem.rdchem.Mol object at 0x7f5838cc5770>, <rdkit.Chem.rdchem.Mol object at 0x7f5838cc7a00>, <rdkit.Chem.rdchem.Mol object at 0x7f5838cc57e0>, <rdkit.Chem.rdchem.Mol object at 0x7f5838cc69d0>]","[<rdkit.Chem.rdchem.Mol object at 0x7f5838cc6110>, <rdkit.Chem.rdchem.Mol object at 0x7f5838cc5cb0>, <rdkit.Chem.rdchem.Mol object at 0x7f5838cc5000>, <rdkit.Chem.rdchem.Mol object at 0x7f5838cc7300>, <rdkit.Chem.rdchem.Mol object at 0x7f5838cc7bc0>, '.', <rdkit.Chem.rdchem.Mol object at 0x7f5838cc6490>, <rdkit.Chem.rdchem.Mol object at 0x7f5838cc7760>, <rdkit.Chem.rdchem.Mol object at 0x7f5838cc5770>, <rdkit.Chem.rdchem.Mol object at 0x7f5838cc7a00>, <rdkit.Chem.rdchem.Mol object at 0x7f5838cc57e0>, <rdkit.Chem.rdchem.Mol object at 0x7f5838cc69d0>]","[0, 0, 0, 0, 0, 5475, 5476, 5477, 5478, 5479, 1, 5480, 5481, 5482, 5483, 5484, 5485]"
PBDB-T,BTTFIC,-5.297714285714285,-3.4170000000000003,-5.56,-3.95,1.5,o-DCB,_,130.0,MoOx,ZnO,9.0,9.01,0.935,54.3,"[<rdkit.Chem.rdchem.Mol object at 0x7f5838cc7220>, <rdkit.Chem.rdchem.Mol object at 0x7f5838cc70d0>, <rdkit.Chem.rdchem.Mol object at 0x7f5838cc5a10>, <rdkit.Chem.rdchem.Mol object at 0x7f5838cc7530>, <rdkit.Chem.rdchem.Mol object at 0x7f5838ccc2e0>]","[<rdkit.Chem.rdchem.Mol object at 0x7f5838cc6650>, <rdkit.Chem.rdchem.Mol object at 0x7f5838cc7840>, <rdkit.Chem.rdchem.Mol object at 0x7f5838cc78b0>, <rdkit.Chem.rdchem.Mol object at 0x7f5838cc7ca0>]","[<rdkit.Chem.rdchem.Mol object at 0x7f5838cc7220>, <rdkit.Chem.rdchem.Mol object at 0x7f5838cc70d0>, <rdkit.Chem.rdchem.Mol object at 0x7f5838cc5a10>, <rdkit.Chem.rdchem.Mol object at 0x7f5838cc7530>, <rdkit.Chem.rdchem.Mol object at 0x7f5838ccc2e0>, '.', <rdkit.Chem.rdchem.Mol object at 0x7f5838cc6650>, <rdkit.Chem.rdchem.Mol object at 0x7f5838cc7840>, <rdkit.Chem.rdchem.Mol object at 0x7f5838cc78b0>, <rdkit.Chem.rdchem.Mol object at 0x7f5838cc7ca0>]","[0, 0, 0, 0, 0, 0, 0, 5486, 5487, 5488, 5489, 5490, 1, 5491, 5492, 5493, 5494]"
PTB7-Th,BTTFIC,-5.204782608695651,-3.5391891891891896,-5.56,-3.95,0.5,o-DCB,_,130.0,MoOx,ZnO,8.47,8.46,0.871,55.0,"[<rdkit.Chem.rdchem.Mol object at 0x7f5838cc4dd0>, <rdkit.Chem.rdchem.Mol object at 0x7f5838cc7f40>, <rdkit.Chem.rdchem.Mol object at 0x7f5838cc77d0>, <rdkit.Chem.rdchem.Mol object at 0x7f5838cc7e60>, <rdkit.Chem.rdchem.Mol object at 0x7f5838cc7d80>, <rdkit.Chem.rdchem.Mol object at 0x7f5838cc7ae0>, <rdkit.Chem.rdchem.Mol object at 0x7f5838cc7c30>]","[<rdkit.Chem.rdchem.Mol object at 0x7f5838cc4cf0>, <rdkit.Chem.rdchem.Mol object at 0x7f5838cc55b0>, <rdkit.Chem.rdchem.Mol object at 0x7f5838cc6ab0>, <rdkit.Chem.rdchem.Mol object at 0x7f5838cc7610>]","[<rdkit.Chem.rdchem.Mol object at 0x7f5838cc4dd0>, <rdkit.Chem.rdchem.Mol object at 0x7f5838cc7f40>, <rdkit.Chem.rdchem.Mol object at 0x7f5838cc77d0>, <rdkit.Chem.rdchem.Mol object at 0x7f5838cc7e60>, <rdkit.Chem.rdchem.Mol object at 0x7f5838cc7d80>, <rdkit.Chem.rdchem.Mol object at 0x7f5838cc7ae0>, <rdkit.Chem.rdchem.Mol object at 0x7f5838cc7c30>, '.', <rdkit.Chem.rdchem.Mol object at 0x7f5838cc4cf0>, <rdkit.Chem.rdchem.Mol object at 0x7f5838cc55b0>, <rdkit.Chem.rdchem.Mol object at 0x7f5838cc6ab0>, <rdkit.Chem.rdchem.Mol object at 0x7f5838cc7610>]","[0, 0, 0, 0, 0, 5495, 5496, 5497, 5498, 5499, 5500, 5501, 1, 5502, 5503, 5504, 5505]"
PM6,IT-4F,-5.529999999999999,-3.555,-5.66875,-4.060416666666667,1.0,CB,DIO,100.0,MoOx,ZnO,13.5,13.52,0.84,72.5,"[<rdkit.Chem.rdchem.Mol object at 0x7f5838cc5d20>, <rdkit.Chem.rdchem.Mol object at 0x7f5838cc7920>, <rdkit.Chem.rdchem.Mol object at 0x7f5838cc7a70>, <rdkit.Chem.rdchem.Mol object at 0x7f5838cc7ed0>, <rdkit.Chem.rdchem.Mol object at 0x7f5838cc4200>, <rdkit.Chem.rdchem.Mol object at 0x7f5838ccc9e0>]","[<rdkit.Chem.rdchem.Mol object at 0x7f5838cc7d10>, <rdkit.Chem.rdchem.Mol object at 0x7f5838cc76f0>, <rdkit.Chem.rdchem.Mol object at 0x7f5838cc7990>, <rdkit.Chem.rdchem.Mol object at 0x7f5838cc6570>, <rdkit.Chem.rdchem.Mol object at 0x7f5838ccc820>]","[<rdkit.Chem.rdchem.Mol object at 0x7f5838cc5d20>, <rdkit.Chem.rdchem.Mol object at 0x7f5838cc7920>, <rdkit.Chem.rdchem.Mol object at 0x7f5838cc7a70>, <rdkit.Chem.rdchem.Mol object at 0x7f5838cc7ed0>, <rdkit.Chem.rdchem.Mol object at 0x7f5838cc4200>, <rdkit.Chem.rdchem.Mol object at 0x7f5838ccc9e0>, '.', <rdkit.Chem.rdchem.Mol object at 0x7f5838cc7d10>, <rdkit.Chem.rdchem.Mol object at 0x7f5838cc76f0>, <rdkit.Chem.rdchem.Mol object at 0x7f5838cc7990>, <rdkit.Chem.rdchem.Mol object at 0x7f5838cc6570>, <rdkit.Chem.rdchem.Mol object at 0x7f5838ccc820>]","[0, 0, 0, 0, 0, 5506, 5507, 5508, 5509, 5510, 5511, 1, 5512, 5513, 5514, 5515, 5516]"