Donor,Acceptor,HOMO_D_eV,LUMO_D_eV,HOMO_A_eV,LUMO_A_eV,D_A_ratio_m_m,solvent,solvent_additive,annealing_temperature,hole_contact_layer,electron_contact_layer,PCE_percent,calc_PCE_percent,Voc_V,FF_percent,Donor_BRICS,Acceptor_BRICS,DA_pair_BRICS,DA_tokenized_BRICS
P3HT,IDT-RCN,-5.057777777777777,-2.989444444444445,-5.62,-3.75,1.25,CB,CN,25.0,PEDOT:PSS,Ca,3.42,3.44,0.69,63.0,"[<rdkit.Chem.rdchem.Mol object at 0x7f5838ca37d0>, <rdkit.Chem.rdchem.Mol object at 0x7f5838ca0120>, <rdkit.Chem.rdchem.Mol object at 0x7f5838ca36f0>, <rdkit.Chem.rdchem.Mol object at 0x7f5838ca23b0>]","[<rdkit.Chem.rdchem.Mol object at 0x7f5838ca3450>, <rdkit.Chem.rdchem.Mol object at 0x7f5838ca3df0>, <rdkit.Chem.rdchem.Mol object at 0x7f5838ca28f0>, <rdkit.Chem.rdchem.Mol object at 0x7f5838ca2810>]","[<rdkit.Chem.rdchem.Mol object at 0x7f5838ca37d0>, <rdkit.Chem.rdchem.Mol object at 0x7f5838ca0120>, <rdkit.Chem.rdchem.Mol object at 0x7f5838ca36f0>, <rdkit.Chem.rdchem.Mol object at 0x7f5838ca23b0>, '.', <rdkit.Chem.rdchem.Mol object at 0x7f5838ca3450>, <rdkit.Chem.rdchem.Mol object at 0x7f5838ca3df0>, <rdkit.Chem.rdchem.Mol object at 0x7f5838ca28f0>, <rdkit.Chem.rdchem.Mol object at 0x7f5838ca2810>]","[0, 0, 0, 0, 0, 0, 0, 0, 5094, 5095, 5096, 5097, 1, 5098, 5099, 5100, 5101]"
P3HT,IDT-CA,-5.057777777777777,-2.989444444444445,-5.59,-3.64,1.25,CB,CN,25.0,PEDOT:PSS,Ca,4.19,4.18,0.84,64.0,"[<rdkit.Chem.rdchem.Mol object at 0x7f5838ca3530>, <rdkit.Chem.rdchem.Mol object at 0x7f5838ca3a70>, <rdkit.Chem.rdchem.Mol object at 0x7f5838ca4120>, <rdkit.Chem.rdchem.Mol object at 0x7f5838ca3220>]","[<rdkit.Chem.rdchem.Mol object at 0x7f5838ca2f80>, <rdkit.Chem.rdchem.Mol object at 0x7f5838ca0c80>, <rdkit.Chem.rdchem.Mol object at 0x7f5838ca2ce0>, <rdkit.Chem.rdchem.Mol object at 0x7f5838ca1b60>, <rdkit.Chem.rdchem.Mol object at 0x7f5838ca3140>, <rdkit.Chem.rdchem.Mol object at 0x7f5838ca44a0>, <rdkit.Chem.rdchem.Mol object at 0x7f5838ca4190>]","[<rdkit.Chem.rdchem.Mol object at 0x7f5838ca3530>, <rdkit.Chem.rdchem.Mol object at 0x7f5838ca3a70>, <rdkit.Chem.rdchem.Mol object at 0x7f5838ca4120>, <rdkit.Chem.rdchem.Mol object at 0x7f5838ca3220>, '.', <rdkit.Chem.rdchem.Mol object at 0x7f5838ca2f80>, <rdkit.Chem.rdchem.Mol object at 0x7f5838ca0c80>, <rdkit.Chem.rdchem.Mol object at 0x7f5838ca2ce0>, <rdkit.Chem.rdchem.Mol object at 0x7f5838ca1b60>, <rdkit.Chem.rdchem.Mol object at 0x7f5838ca3140>, <rdkit.Chem.rdchem.Mol object at 0x7f5838ca44a0>, <rdkit.Chem.rdchem.Mol object at 0x7f5838ca4190>]","[0, 0, 0, 0, 0, 5102, 5103, 5104, 5105, 1, 5106, 5107, 5108, 5109, 5110, 5111, 5112]"
PBDB-T,IDTO-T-4F,-5.297714285714285,-3.4170000000000003,-5.49,-3.88,0.833,CF,DIO,25.0,PEDOT:PSS,PDINO,12.62,12.64,0.864,72.7,"[<rdkit.Chem.rdchem.Mol object at 0x7f5838ca2340>, <rdkit.Chem.rdchem.Mol object at 0x7f5838ca3d80>, <rdkit.Chem.rdchem.Mol object at 0x7f5838ca3ae0>, <rdkit.Chem.rdchem.Mol object at 0x7f5838ca4270>, <rdkit.Chem.rdchem.Mol object at 0x7f5838ca4dd0>]","[<rdkit.Chem.rdchem.Mol object at 0x7f5838ca1850>, <rdkit.Chem.rdchem.Mol object at 0x7f5838ca2dc0>, <rdkit.Chem.rdchem.Mol object at 0x7f5838ca2b90>, <rdkit.Chem.rdchem.Mol object at 0x7f5838ca3300>, <rdkit.Chem.rdchem.Mol object at 0x7f5838ca3990>, <rdkit.Chem.rdchem.Mol object at 0x7f5838ca1150>, <rdkit.Chem.rdchem.Mol object at 0x7f5838ca4200>, <rdkit.Chem.rdchem.Mol object at 0x7f5838ca4580>]","[<rdkit.Chem.rdchem.Mol object at 0x7f5838ca2340>, <rdkit.Chem.rdchem.Mol object at 0x7f5838ca3d80>, <rdkit.Chem.rdchem.Mol object at 0x7f5838ca3ae0>, <rdkit.Chem.rdchem.Mol object at 0x7f5838ca4270>, <rdkit.Chem.rdchem.Mol object at 0x7f5838ca4dd0>, '.', <rdkit.Chem.rdchem.Mol object at 0x7f5838ca1850>, <rdkit.Chem.rdchem.Mol object at 0x7f5838ca2dc0>, <rdkit.Chem.rdchem.Mol object at 0x7f5838ca2b90>, <rdkit.Chem.rdchem.Mol object at 0x7f5838ca3300>, <rdkit.Chem.rdchem.Mol object at 0x7f5838ca3990>, <rdkit.Chem.rdchem.Mol object at 0x7f5838ca1150>, <rdkit.Chem.rdchem.Mol object at 0x7f5838ca4200>, <rdkit.Chem.rdchem.Mol object at 0x7f5838ca4580>]","[0, 0, 0, 5113, 5114, 5115, 5116, 5117, 1, 5118, 5119, 5120, 5121, 5122, 5123, 5124, 5125]"
PBDB-T,IDTO-Se-4F,-5.297714285714285,-3.4170000000000003,-5.48,-3.9,0.909,CB,DIO,25.0,PEDOT:PSS,PDINO,10.67,10.67,0.831,69.2,"[<rdkit.Chem.rdchem.Mol object at 0x7f5838ca3ed0>, <rdkit.Chem.rdchem.Mol object at 0x7f5838ca4900>, <rdkit.Chem.rdchem.Mol object at 0x7f5838ca40b0>, <rdkit.Chem.rdchem.Mol object at 0x7f5838ca5000>, <rdkit.Chem.rdchem.Mol object at 0x7f5838ca53f0>]","[<rdkit.Chem.rdchem.Mol object at 0x7f5838ca3c30>, <rdkit.Chem.rdchem.Mol object at 0x7f5838ca3ca0>, <rdkit.Chem.rdchem.Mol object at 0x7f5838ca5460>, <rdkit.Chem.rdchem.Mol object at 0x7f5838ca09e0>, <rdkit.Chem.rdchem.Mol object at 0x7f5838ca2ff0>, <rdkit.Chem.rdchem.Mol object at 0x7f5838ca4a50>]","[<rdkit.Chem.rdchem.Mol object at 0x7f5838ca3ed0>, <rdkit.Chem.rdchem.Mol object at 0x7f5838ca4900>, <rdkit.Chem.rdchem.Mol object at 0x7f5838ca40b0>, <rdkit.Chem.rdchem.Mol object at 0x7f5838ca5000>, <rdkit.Chem.rdchem.Mol object at 0x7f5838ca53f0>, '.', <rdkit.Chem.rdchem.Mol object at 0x7f5838ca3c30>, <rdkit.Chem.rdchem.Mol object at 0x7f5838ca3ca0>, <rdkit.Chem.rdchem.Mol object at 0x7f5838ca5460>, <rdkit.Chem.rdchem.Mol object at 0x7f5838ca09e0>, <rdkit.Chem.rdchem.Mol object at 0x7f5838ca2ff0>, <rdkit.Chem.rdchem.Mol object at 0x7f5838ca4a50>]","[0, 0, 0, 0, 0, 5126, 5127, 5128, 5129, 5130, 1, 5131, 5132, 5133, 5134, 5135, 5136]"
PBDB-T,IDTO-TT-4F,-5.297714285714285,-3.4170000000000003,-5.39,-3.89,0.909,CF,DIO,25.0,PEDOT:PSS,PDINO,10.21,10.22,0.856,69.4,"[<rdkit.Chem.rdchem.Mol object at 0x7f5838ca0970>, <rdkit.Chem.rdchem.Mol object at 0x7f5838ca4970>, <rdkit.Chem.rdchem.Mol object at 0x7f5838ca4cf0>, <rdkit.Chem.rdchem.Mol object at 0x7f5838ca4510>, <rdkit.Chem.rdchem.Mol object at 0x7f5838ca5930>]","[<rdkit.Chem.rdchem.Mol object at 0x7f5838ca3760>, <rdkit.Chem.rdchem.Mol object at 0x7f5838ca35a0>, <rdkit.Chem.rdchem.Mol object at 0x7f5838ca5770>, <rdkit.Chem.rdchem.Mol object at 0x7f5838ca3840>, <rdkit.Chem.rdchem.Mol object at 0x7f5838ca1fc0>, <rdkit.Chem.rdchem.Mol object at 0x7f5838ca51c0>, <rdkit.Chem.rdchem.Mol object at 0x7f5838ca4040>, <rdkit.Chem.rdchem.Mol object at 0x7f5838ca4430>]","[<rdkit.Chem.rdchem.Mol object at 0x7f5838ca0970>, <rdkit.Chem.rdchem.Mol object at 0x7f5838ca4970>, <rdkit.Chem.rdchem.Mol object at 0x7f5838ca4cf0>, <rdkit.Chem.rdchem.Mol object at 0x7f5838ca4510>, <rdkit.Chem.rdchem.Mol object at 0x7f5838ca5930>, '.', <rdkit.Chem.rdchem.Mol object at 0x7f5838ca3760>, <rdkit.Chem.rdchem.Mol object at 0x7f5838ca35a0>, <rdkit.Chem.rdchem.Mol object at 0x7f5838ca5770>, <rdkit.Chem.rdchem.Mol object at 0x7f5838ca3840>, <rdkit.Chem.rdchem.Mol object at 0x7f5838ca1fc0>, <rdkit.Chem.rdchem.Mol object at 0x7f5838ca51c0>, <rdkit.Chem.rdchem.Mol object at 0x7f5838ca4040>, <rdkit.Chem.rdchem.Mol object at 0x7f5838ca4430>]","[0, 0, 0, 5137, 5138, 5139, 5140, 5141, 1, 5142, 5143, 5144, 5145, 5146, 5147, 5148, 5149]"
PBDB-T,IDT2Se,-5.297714285714285,-3.4170000000000003,-5.41,-3.87,1.0,CB,_,80.0,PEDOT:PSS,PDINO,9.11,9.11,0.88,59.8,"[<rdkit.Chem.rdchem.Mol object at 0x7f5838ca3f40>, <rdkit.Chem.rdchem.Mol object at 0x7f5838ca5700>, <rdkit.Chem.rdchem.Mol object at 0x7f5838ca54d0>, <rdkit.Chem.rdchem.Mol object at 0x7f5838ca5690>, <rdkit.Chem.rdchem.Mol object at 0x7f5838ca5f50>]","[<rdkit.Chem.rdchem.Mol object at 0x7f5838ca5fc0>, <rdkit.Chem.rdchem.Mol object at 0x7f5838ca45f0>, <rdkit.Chem.rdchem.Mol object at 0x7f5838ca5a10>, <rdkit.Chem.rdchem.Mol object at 0x7f5838ca5310>]","[<rdkit.Chem.rdchem.Mol object at 0x7f5838ca3f40>, <rdkit.Chem.rdchem.Mol object at 0x7f5838ca5700>, <rdkit.Chem.rdchem.Mol object at 0x7f5838ca54d0>, <rdkit.Chem.rdchem.Mol object at 0x7f5838ca5690>, <rdkit.Chem.rdchem.Mol object at 0x7f5838ca5f50>, '.', <rdkit.Chem.rdchem.Mol object at 0x7f5838ca5fc0>, <rdkit.Chem.rdchem.Mol object at 0x7f5838ca45f0>, <rdkit.Chem.rdchem.Mol object at 0x7f5838ca5a10>, <rdkit.Chem.rdchem.Mol object at 0x7f5838ca5310>]","[0, 0, 0, 0, 0, 0, 0, 5150, 5151, 5152, 5153, 5154, 1, 5155, 5156, 5157, 5158]"
PBDB-T,IDT2Se-4F,-5.297714285714285,-3.4170000000000003,-5.51,-4.0,1.0,CB,_,80.0,PEDOT:PSS,PDINO,11.03,11.03,0.79,65.4,"[<rdkit.Chem.rdchem.Mol object at 0x7f5838ca3e60>, <rdkit.Chem.rdchem.Mol object at 0x7f5838ca4b30>, <rdkit.Chem.rdchem.Mol object at 0x7f5838ca50e0>, <rdkit.Chem.rdchem.Mol object at 0x7f5838ca4ba0>, <rdkit.Chem.rdchem.Mol object at 0x7f5838ca5150>]","[<rdkit.Chem.rdchem.Mol object at 0x7f5838ca6500>, <rdkit.Chem.rdchem.Mol object at 0x7f5838ca4e40>, <rdkit.Chem.rdchem.Mol object at 0x7f5838ca5540>, <rdkit.Chem.rdchem.Mol object at 0x7f5838ca62d0>]","[<rdkit.Chem.rdchem.Mol object at 0x7f5838ca3e60>, <rdkit.Chem.rdchem.Mol object at 0x7f5838ca4b30>, <rdkit.Chem.rdchem.Mol object at 0x7f5838ca50e0>, <rdkit.Chem.rdchem.Mol object at 0x7f5838ca4ba0>, <rdkit.Chem.rdchem.Mol object at 0x7f5838ca5150>, '.', <rdkit.Chem.rdchem.Mol object at 0x7f5838ca6500>, <rdkit.Chem.rdchem.Mol object at 0x7f5838ca4e40>, <rdkit.Chem.rdchem.Mol object at 0x7f5838ca5540>, <rdkit.Chem.rdchem.Mol object at 0x7f5838ca62d0>]","[0, 0, 0, 0, 0, 0, 0, 5159, 5160, 5161, 5162, 5163, 1, 5164, 5165, 5166, 5167]"
PBDT-Se-TAZ,ITIC,-5.23,-3.45,-5.574146341463415,-3.915,1.0,CF,DIO,25.0,MoOx,ZnO,10.07,10.07,0.81,66.7,"[<rdkit.Chem.rdchem.Mol object at 0x7f5838ca02e0>, <rdkit.Chem.rdchem.Mol object at 0x7f5838ca47b0>, <rdkit.Chem.rdchem.Mol object at 0x7f5838ca66c0>, <rdkit.Chem.rdchem.Mol object at 0x7f5838ca5bd0>, <rdkit.Chem.rdchem.Mol object at 0x7f5838ca65e0>]","[<rdkit.Chem.rdchem.Mol object at 0x7f5838ca61f0>, <rdkit.Chem.rdchem.Mol object at 0x7f5838ca57e0>, <rdkit.Chem.rdchem.Mol object at 0x7f5838ca5380>, <rdkit.Chem.rdchem.Mol object at 0x7f5838ca5cb0>, <rdkit.Chem.rdchem.Mol object at 0x7f5838ca4350>]","[<rdkit.Chem.rdchem.Mol object at 0x7f5838ca02e0>, <rdkit.Chem.rdchem.Mol object at 0x7f5838ca47b0>, <rdkit.Chem.rdchem.Mol object at 0x7f5838ca66c0>, <rdkit.Chem.rdchem.Mol object at 0x7f5838ca5bd0>, <rdkit.Chem.rdchem.Mol object at 0x7f5838ca65e0>, '.', <rdkit.Chem.rdchem.Mol object at 0x7f5838ca61f0>, <rdkit.Chem.rdchem.Mol object at 0x7f5838ca57e0>, <rdkit.Chem.rdchem.Mol object at 0x7f5838ca5380>, <rdkit.Chem.rdchem.Mol object at 0x7f5838ca5cb0>, <rdkit.Chem.rdchem.Mol object at 0x7f5838ca4350>]","[0, 0, 0, 0, 0, 0, 5168, 5169, 5170, 5171, 5172, 1, 5173, 5174, 5175, 5176, 5177]"
PBDTS-Se-TAZ,ITIC,-5.29,-3.49,-5.574146341463415,-3.915,1.0,CF,DIO,25.0,MoOx,ZnO,12.31,12.31,0.84,75.1,"[<rdkit.Chem.rdchem.Mol object at 0x7f5838ca34c0>, <rdkit.Chem.rdchem.Mol object at 0x7f5838ca60a0>, <rdkit.Chem.rdchem.Mol object at 0x7f5838ca6180>, <rdkit.Chem.rdchem.Mol object at 0x7f5838ca5070>, <rdkit.Chem.rdchem.Mol object at 0x7f5838ca4660>, <rdkit.Chem.rdchem.Mol object at 0x7f5838ca59a0>]","[<rdkit.Chem.rdchem.Mol object at 0x7f5838ca4d60>, <rdkit.Chem.rdchem.Mol object at 0x7f5838ca63b0>, <rdkit.Chem.rdchem.Mol object at 0x7f5838ca4f90>, <rdkit.Chem.rdchem.Mol object at 0x7f5838ca5850>, <rdkit.Chem.rdchem.Mol object at 0x7f5838ca6650>]","[<rdkit.Chem.rdchem.Mol object at 0x7f5838ca34c0>, <rdkit.Chem.rdchem.Mol object at 0x7f5838ca60a0>, <rdkit.Chem.rdchem.Mol object at 0x7f5838ca6180>, <rdkit.Chem.rdchem.Mol object at 0x7f5838ca5070>, <rdkit.Chem.rdchem.Mol object at 0x7f5838ca4660>, <rdkit.Chem.rdchem.Mol object at 0x7f5838ca59a0>, '.', <rdkit.Chem.rdchem.Mol object at 0x7f5838ca4d60>, <rdkit.Chem.rdchem.Mol object at 0x7f5838ca63b0>, <rdkit.Chem.rdchem.Mol object at 0x7f5838ca4f90>, <rdkit.Chem.rdchem.Mol object at 0x7f5838ca5850>, <rdkit.Chem.rdchem.Mol object at 0x7f5838ca6650>]","[0, 0, 0, 0, 0, 5178, 5179, 5180, 5181, 5182, 5183, 1, 5184, 5185, 5186, 5187, 5188]"
PBDB-TF,IT-M,-5.497142857142857,-3.6428571428571423,-5.513571428571429,-3.808,1.0,CB,DIO,100.0,PEDOT:PSS,PFN-Br,10.5,10.47,1.02,65.0,"[<rdkit.Chem.rdchem.Mol object at 0x7f5838ca6810>, <rdkit.Chem.rdchem.Mol object at 0x7f5838ca6110>, <rdkit.Chem.rdchem.Mol object at 0x7f5838ca5d90>, <rdkit.Chem.rdchem.Mol object at 0x7f5838ca6570>, <rdkit.Chem.rdchem.Mol object at 0x7f5838ca69d0>, <rdkit.Chem.rdchem.Mol object at 0x7f5838ca7060>]","[<rdkit.Chem.rdchem.Mol object at 0x7f5838ca7290>, <rdkit.Chem.rdchem.Mol object at 0x7f5838ca6880>, <rdkit.Chem.rdchem.Mol object at 0x7f5838ca6c00>, <rdkit.Chem.rdchem.Mol object at 0x7f5838ca6960>, <rdkit.Chem.rdchem.Mol object at 0x7f5838ca58c0>]","[<rdkit.Chem.rdchem.Mol object at 0x7f5838ca6810>, <rdkit.Chem.rdchem.Mol object at 0x7f5838ca6110>, <rdkit.Chem.rdchem.Mol object at 0x7f5838ca5d90>, <rdkit.Chem.rdchem.Mol object at 0x7f5838ca6570>, <rdkit.Chem.rdchem.Mol object at 0x7f5838ca69d0>, <rdkit.Chem.rdchem.Mol object at 0x7f5838ca7060>, '.', <rdkit.Chem.rdchem.Mol object at 0x7f5838ca7290>, <rdkit.Chem.rdchem.Mol object at 0x7f5838ca6880>, <rdkit.Chem.rdchem.Mol object at 0x7f5838ca6c00>, <rdkit.Chem.rdchem.Mol object at 0x7f5838ca6960>, <rdkit.Chem.rdchem.Mol object at 0x7f5838ca58c0>]","[0, 0, 0, 0, 0, 5189, 5190, 5191, 5192, 5193, 5194, 1, 5195, 5196, 5197, 5198, 5199]"
PBZ1,ITIC,-5.27,-3.06,-5.574146341463415,-3.915,1.0,Toluene,_,160.0,MoOx,ZnO,5.8,5.79,0.74,49.8,"[<rdkit.Chem.rdchem.Mol object at 0x7f5838ca4c10>, <rdkit.Chem.rdchem.Mol object at 0x7f5838ca6ab0>, <rdkit.Chem.rdchem.Mol object at 0x7f5838ca4f20>, <rdkit.Chem.rdchem.Mol object at 0x7f5838ca7450>, <rdkit.Chem.rdchem.Mol object at 0x7f5838ca43c0>, <rdkit.Chem.rdchem.Mol object at 0x7f5838ca6b20>, <rdkit.Chem.rdchem.Mol object at 0x7f5838ca6030>, <rdkit.Chem.rdchem.Mol object at 0x7f5838ca5ee0>]","[<rdkit.Chem.rdchem.Mol object at 0x7f5838ca5d20>, <rdkit.Chem.rdchem.Mol object at 0x7f5838ca6ff0>, <rdkit.Chem.rdchem.Mol object at 0x7f5838ca78b0>, <rdkit.Chem.rdchem.Mol object at 0x7f5838ca75a0>, <rdkit.Chem.rdchem.Mol object at 0x7f5838ca4890>]","[<rdkit.Chem.rdchem.Mol object at 0x7f5838ca4c10>, <rdkit.Chem.rdchem.Mol object at 0x7f5838ca6ab0>, <rdkit.Chem.rdchem.Mol object at 0x7f5838ca4f20>, <rdkit.Chem.rdchem.Mol object at 0x7f5838ca7450>, <rdkit.Chem.rdchem.Mol object at 0x7f5838ca43c0>, <rdkit.Chem.rdchem.Mol object at 0x7f5838ca6b20>, <rdkit.Chem.rdchem.Mol object at 0x7f5838ca6030>, <rdkit.Chem.rdchem.Mol object at 0x7f5838ca5ee0>, '.', <rdkit.Chem.rdchem.Mol object at 0x7f5838ca5d20>, <rdkit.Chem.rdchem.Mol object at 0x7f5838ca6ff0>, <rdkit.Chem.rdchem.Mol object at 0x7f5838ca78b0>, <rdkit.Chem.rdchem.Mol object at 0x7f5838ca75a0>, <rdkit.Chem.rdchem.Mol object at 0x7f5838ca4890>]","[0, 0, 0, 5211, 5212, 5213, 5214, 5215, 5216, 5217, 5218, 1, 5219, 5220, 5221, 5222, 5223]"
PBDB-TF,HF-PCIC,-5.497142857142857,-3.6428571428571423,-5.53,-3.83,0.833,CB,CN,110.0,MoOx,ZnO,10.97,10.67,0.92,72.42,"[<rdkit.Chem.rdchem.Mol object at 0x7f5838ca7b50>, <rdkit.Chem.rdchem.Mol object at 0x7f5838ca74c0>, <rdkit.Chem.rdchem.Mol object at 0x7f5838ca49e0>, <rdkit.Chem.rdchem.Mol object at 0x7f5838ca4820>, <rdkit.Chem.rdchem.Mol object at 0x7f5838ca7f40>, <rdkit.Chem.rdchem.Mol object at 0x7f5838cb47b0>]","[<rdkit.Chem.rdchem.Mol object at 0x7f5838ca5e00>, <rdkit.Chem.rdchem.Mol object at 0x7f5838ca7bc0>, <rdkit.Chem.rdchem.Mol object at 0x7f5838ca5a80>, <rdkit.Chem.rdchem.Mol object at 0x7f5838ca5b60>, <rdkit.Chem.rdchem.Mol object at 0x7f5838ca76f0>]","[<rdkit.Chem.rdchem.Mol object at 0x7f5838ca7b50>, <rdkit.Chem.rdchem.Mol object at 0x7f5838ca74c0>, <rdkit.Chem.rdchem.Mol object at 0x7f5838ca49e0>, <rdkit.Chem.rdchem.Mol object at 0x7f5838ca4820>, <rdkit.Chem.rdchem.Mol object at 0x7f5838ca7f40>, <rdkit.Chem.rdchem.Mol object at 0x7f5838cb47b0>, '.', <rdkit.Chem.rdchem.Mol object at 0x7f5838ca5e00>, <rdkit.Chem.rdchem.Mol object at 0x7f5838ca7bc0>, <rdkit.Chem.rdchem.Mol object at 0x7f5838ca5a80>, <rdkit.Chem.rdchem.Mol object at 0x7f5838ca5b60>, <rdkit.Chem.rdchem.Mol object at 0x7f5838ca76f0>]","[0, 0, 0, 0, 0, 5238, 5239, 5240, 5241, 5242, 5243, 1, 5244, 5245, 5246, 5247, 5248]"
PBDB-TF,HFO-PCIC,-5.497142857142857,-3.6428571428571423,-5.5,-3.81,0.833,CB,CN,110.0,MoOx,ZnO,8.36,8.33,0.93,70.99,"[<rdkit.Chem.rdchem.Mol object at 0x7f5838ca7ed0>, <rdkit.Chem.rdchem.Mol object at 0x7f5838ca7a70>, <rdkit.Chem.rdchem.Mol object at 0x7f5838ca7df0>, <rdkit.Chem.rdchem.Mol object at 0x7f5838cb43c0>, <rdkit.Chem.rdchem.Mol object at 0x7f5838cb42e0>, <rdkit.Chem.rdchem.Mol object at 0x7f5838cb4cf0>]","[<rdkit.Chem.rdchem.Mol object at 0x7f5838ca68f0>, <rdkit.Chem.rdchem.Mol object at 0x7f5838ca7d10>, <rdkit.Chem.rdchem.Mol object at 0x7f5838ca7a00>, <rdkit.Chem.rdchem.Mol object at 0x7f5838ca71b0>, <rdkit.Chem.rdchem.Mol object at 0x7f5838ca4c80>, <rdkit.Chem.rdchem.Mol object at 0x7f5838cb5000>]","[<rdkit.Chem.rdchem.Mol object at 0x7f5838ca7ed0>, <rdkit.Chem.rdchem.Mol object at 0x7f5838ca7a70>, <rdkit.Chem.rdchem.Mol object at 0x7f5838ca7df0>, <rdkit.Chem.rdchem.Mol object at 0x7f5838cb43c0>, <rdkit.Chem.rdchem.Mol object at 0x7f5838cb42e0>, <rdkit.Chem.rdchem.Mol object at 0x7f5838cb4cf0>, '.', <rdkit.Chem.rdchem.Mol object at 0x7f5838ca68f0>, <rdkit.Chem.rdchem.Mol object at 0x7f5838ca7d10>, <rdkit.Chem.rdchem.Mol object at 0x7f5838ca7a00>, <rdkit.Chem.rdchem.Mol object at 0x7f5838ca71b0>, <rdkit.Chem.rdchem.Mol object at 0x7f5838ca4c80>, <rdkit.Chem.rdchem.Mol object at 0x7f5838cb5000>]","[0, 0, 0, 0, 5249, 5250, 5251, 5252, 5253, 5254, 1, 5255, 5256, 5257, 5258, 5259, 5260]"
PBDB-TF,OF-PCIC,-5.497142857142857,-3.6428571428571423,-5.66,-3.86,0.833,CB,CN,110.0,MoOx,ZnO,9.09,9.19,0.91,73.37,"[<rdkit.Chem.rdchem.Mol object at 0x7f5838ca7e60>, <rdkit.Chem.rdchem.Mol object at 0x7f5838cb4820>, <rdkit.Chem.rdchem.Mol object at 0x7f5838cb40b0>, <rdkit.Chem.rdchem.Mol object at 0x7f5838cb4200>, <rdkit.Chem.rdchem.Mol object at 0x7f5838cb4d60>, <rdkit.Chem.rdchem.Mol object at 0x7f5838cb5310>]","[<rdkit.Chem.rdchem.Mol object at 0x7f5838ca6b90>, <rdkit.Chem.rdchem.Mol object at 0x7f5838cb5700>, <rdkit.Chem.rdchem.Mol object at 0x7f5838ca7c30>, <rdkit.Chem.rdchem.Mol object at 0x7f5838ca70d0>, <rdkit.Chem.rdchem.Mol object at 0x7f5838cb4580>]","[<rdkit.Chem.rdchem.Mol object at 0x7f5838ca7e60>, <rdkit.Chem.rdchem.Mol object at 0x7f5838cb4820>, <rdkit.Chem.rdchem.Mol object at 0x7f5838cb40b0>, <rdkit.Chem.rdchem.Mol object at 0x7f5838cb4200>, <rdkit.Chem.rdchem.Mol object at 0x7f5838cb4d60>, <rdkit.Chem.rdchem.Mol object at 0x7f5838cb5310>, '.', <rdkit.Chem.rdchem.Mol object at 0x7f5838ca6b90>, <rdkit.Chem.rdchem.Mol object at 0x7f5838cb5700>, <rdkit.Chem.rdchem.Mol object at 0x7f5838ca7c30>, <rdkit.Chem.rdchem.Mol object at 0x7f5838ca70d0>, <rdkit.Chem.rdchem.Mol object at 0x7f5838cb4580>]","[0, 0, 0, 0, 0, 5261, 5262, 5263, 5264, 5265, 5266, 1, 5267, 5268, 5269, 5270, 5271]"
PBDB-T,IF-TN,-5.297714285714285,-3.4170000000000003,-5.8,-3.93,1.0,CB,CN,80.0,PEDOT:PSS,PNDIT-F3N-Br,2.89,2.89,1.006,40.95,"[<rdkit.Chem.rdchem.Mol object at 0x7f5838ca42e0>, <rdkit.Chem.rdchem.Mol object at 0x7f5838cb50e0>, <rdkit.Chem.rdchem.Mol object at 0x7f5838cb4740>, <rdkit.Chem.rdchem.Mol object at 0x7f5838cb5540>, <rdkit.Chem.rdchem.Mol object at 0x7f5838cb5ee0>]","[<rdkit.Chem.rdchem.Mol object at 0x7f5838cb4dd0>, <rdkit.Chem.rdchem.Mol object at 0x7f5838cb4f90>, <rdkit.Chem.rdchem.Mol object at 0x7f5838ca6e30>, <rdkit.Chem.rdchem.Mol object at 0x7f5838cb5c40>, <rdkit.Chem.rdchem.Mol object at 0x7f5838cb4eb0>, <rdkit.Chem.rdchem.Mol object at 0x7f5838cb45f0>]","[<rdkit.Chem.rdchem.Mol object at 0x7f5838ca42e0>, <rdkit.Chem.rdchem.Mol object at 0x7f5838cb50e0>, <rdkit.Chem.rdchem.Mol object at 0x7f5838cb4740>, <rdkit.Chem.rdchem.Mol object at 0x7f5838cb5540>, <rdkit.Chem.rdchem.Mol object at 0x7f5838cb5ee0>, '.', <rdkit.Chem.rdchem.Mol object at 0x7f5838cb4dd0>, <rdkit.Chem.rdchem.Mol object at 0x7f5838cb4f90>, <rdkit.Chem.rdchem.Mol object at 0x7f5838ca6e30>, <rdkit.Chem.rdchem.Mol object at 0x7f5838cb5c40>, <rdkit.Chem.rdchem.Mol object at 0x7f5838cb4eb0>, <rdkit.Chem.rdchem.Mol object at 0x7f5838cb45f0>]","[0, 0, 0, 0, 0, 5282, 5283, 5284, 5285, 5286, 1, 5287, 5288, 5289, 5290, 5291, 5292]"