Donor,Acceptor,HOMO_D_eV,LUMO_D_eV,HOMO_A_eV,LUMO_A_eV,D_A_ratio_m_m,solvent,solvent_additive,annealing_temperature,hole_contact_layer,electron_contact_layer,PCE_percent,calc_PCE_percent,Voc_V,FF_percent,Donor_BRICS,Acceptor_BRICS,DA_pair_BRICS,DA_tokenized_BRICS
PDCBT,IDTT-BH,-5.313333333333333,-3.1,-5.24,-3.86,0.833,CF,_,120.0,PEDOT:PSS,PDINO,10.35,10.35,0.88,68.6,"[<rdkit.Chem.rdchem.Mol object at 0x7f5838ecb6f0>, <rdkit.Chem.rdchem.Mol object at 0x7f5838ecb680>, <rdkit.Chem.rdchem.Mol object at 0x7f5838ecb300>, <rdkit.Chem.rdchem.Mol object at 0x7f5838ecb220>, <rdkit.Chem.rdchem.Mol object at 0x7f5838ecbed0>]","[<rdkit.Chem.rdchem.Mol object at 0x7f5838ecb840>, <rdkit.Chem.rdchem.Mol object at 0x7f5838eca340>, <rdkit.Chem.rdchem.Mol object at 0x7f5838ec9690>, <rdkit.Chem.rdchem.Mol object at 0x7f5838ecaf80>, <rdkit.Chem.rdchem.Mol object at 0x7f5838ecaa40>, <rdkit.Chem.rdchem.Mol object at 0x7f5838ec87b0>]","[<rdkit.Chem.rdchem.Mol object at 0x7f5838ecb6f0>, <rdkit.Chem.rdchem.Mol object at 0x7f5838ecb680>, <rdkit.Chem.rdchem.Mol object at 0x7f5838ecb300>, <rdkit.Chem.rdchem.Mol object at 0x7f5838ecb220>, <rdkit.Chem.rdchem.Mol object at 0x7f5838ecbed0>, '.', <rdkit.Chem.rdchem.Mol object at 0x7f5838ecb840>, <rdkit.Chem.rdchem.Mol object at 0x7f5838eca340>, <rdkit.Chem.rdchem.Mol object at 0x7f5838ec9690>, <rdkit.Chem.rdchem.Mol object at 0x7f5838ecaf80>, <rdkit.Chem.rdchem.Mol object at 0x7f5838ecaa40>, <rdkit.Chem.rdchem.Mol object at 0x7f5838ec87b0>]","[0, 0, 0, 0, 0, 215, 216, 217, 218, 219, 1, 220, 221, 222, 223, 224, 225]"
J71,IDTT-OBH,-5.353333333333333,-3.4318181818181825,-5.41,-3.86,1.0,CF,_,25.0,PEDOT:PSS,PDINO,8.02,8.28,0.92,61.0,"[<rdkit.Chem.rdchem.Mol object at 0x7f5838ecb0d0>, <rdkit.Chem.rdchem.Mol object at 0x7f5838ecbdf0>, <rdkit.Chem.rdchem.Mol object at 0x7f5838eca2d0>, <rdkit.Chem.rdchem.Mol object at 0x7f5838ecb450>, <rdkit.Chem.rdchem.Mol object at 0x7f5838ecae30>, <rdkit.Chem.rdchem.Mol object at 0x7f5838ecbe60>]","[<rdkit.Chem.rdchem.Mol object at 0x7f5838ecb370>, <rdkit.Chem.rdchem.Mol object at 0x7f5838eca9d0>, <rdkit.Chem.rdchem.Mol object at 0x7f5838ecaff0>, <rdkit.Chem.rdchem.Mol object at 0x7f5838ec9cb0>, <rdkit.Chem.rdchem.Mol object at 0x7f5838ecac70>, <rdkit.Chem.rdchem.Mol object at 0x7f5838eca960>]","[<rdkit.Chem.rdchem.Mol object at 0x7f5838ecb0d0>, <rdkit.Chem.rdchem.Mol object at 0x7f5838ecbdf0>, <rdkit.Chem.rdchem.Mol object at 0x7f5838eca2d0>, <rdkit.Chem.rdchem.Mol object at 0x7f5838ecb450>, <rdkit.Chem.rdchem.Mol object at 0x7f5838ecae30>, <rdkit.Chem.rdchem.Mol object at 0x7f5838ecbe60>, '.', <rdkit.Chem.rdchem.Mol object at 0x7f5838ecb370>, <rdkit.Chem.rdchem.Mol object at 0x7f5838eca9d0>, <rdkit.Chem.rdchem.Mol object at 0x7f5838ecaff0>, <rdkit.Chem.rdchem.Mol object at 0x7f5838ec9cb0>, <rdkit.Chem.rdchem.Mol object at 0x7f5838ecac70>, <rdkit.Chem.rdchem.Mol object at 0x7f5838eca960>]","[0, 0, 0, 0, 226, 227, 228, 229, 230, 231, 1, 232, 233, 234, 235, 236, 237]"
PBDB-T,IDTT-OBH,-5.297714285714285,-3.4170000000000003,-5.41,-3.86,1.25,CF,_,110.0,PEDOT:PSS,PDINO,10.93,10.94,0.87,72.0,"[<rdkit.Chem.rdchem.Mol object at 0x7f5838ecbae0>, <rdkit.Chem.rdchem.Mol object at 0x7f5838ecab90>, <rdkit.Chem.rdchem.Mol object at 0x7f5838ecb140>, <rdkit.Chem.rdchem.Mol object at 0x7f5838e68270>, <rdkit.Chem.rdchem.Mol object at 0x7f5838e68c80>]","[<rdkit.Chem.rdchem.Mol object at 0x7f5838ec9fc0>, <rdkit.Chem.rdchem.Mol object at 0x7f5838ecace0>, <rdkit.Chem.rdchem.Mol object at 0x7f5838ecb920>, <rdkit.Chem.rdchem.Mol object at 0x7f5838ecbd10>, <rdkit.Chem.rdchem.Mol object at 0x7f5838ec8580>, <rdkit.Chem.rdchem.Mol object at 0x7f5838ec9380>]","[<rdkit.Chem.rdchem.Mol object at 0x7f5838ecbae0>, <rdkit.Chem.rdchem.Mol object at 0x7f5838ecab90>, <rdkit.Chem.rdchem.Mol object at 0x7f5838ecb140>, <rdkit.Chem.rdchem.Mol object at 0x7f5838e68270>, <rdkit.Chem.rdchem.Mol object at 0x7f5838e68c80>, '.', <rdkit.Chem.rdchem.Mol object at 0x7f5838ec9fc0>, <rdkit.Chem.rdchem.Mol object at 0x7f5838ecace0>, <rdkit.Chem.rdchem.Mol object at 0x7f5838ecb920>, <rdkit.Chem.rdchem.Mol object at 0x7f5838ecbd10>, <rdkit.Chem.rdchem.Mol object at 0x7f5838ec8580>, <rdkit.Chem.rdchem.Mol object at 0x7f5838ec9380>]","[0, 0, 0, 0, 0, 238, 239, 240, 241, 242, 1, 243, 244, 245, 246, 247, 248]"
J52,IEICO-4Cl,-5.218571428571429,-3.341428571428572,-5.56,-4.23,0.667,CB,DIO,150.0,PEDOT:PSS,PFN-Br,10.1,10.11,0.7,60.7,"[<rdkit.Chem.rdchem.Mol object at 0x7f5838ecbbc0>, <rdkit.Chem.rdchem.Mol object at 0x7f5838ecb4c0>, <rdkit.Chem.rdchem.Mol object at 0x7f5838e682e0>, <rdkit.Chem.rdchem.Mol object at 0x7f5838e68200>, <rdkit.Chem.rdchem.Mol object at 0x7f5838e68eb0>, <rdkit.Chem.rdchem.Mol object at 0x7f5838e69230>]","[<rdkit.Chem.rdchem.Mol object at 0x7f5838ecb530>, <rdkit.Chem.rdchem.Mol object at 0x7f5838e68ba0>, <rdkit.Chem.rdchem.Mol object at 0x7f5838e68970>, <rdkit.Chem.rdchem.Mol object at 0x7f5838ecba70>, <rdkit.Chem.rdchem.Mol object at 0x7f5838e68740>, <rdkit.Chem.rdchem.Mol object at 0x7f5838e68350>, <rdkit.Chem.rdchem.Mol object at 0x7f5838e69460>, <rdkit.Chem.rdchem.Mol object at 0x7f5838e68430>]","[<rdkit.Chem.rdchem.Mol object at 0x7f5838ecbbc0>, <rdkit.Chem.rdchem.Mol object at 0x7f5838ecb4c0>, <rdkit.Chem.rdchem.Mol object at 0x7f5838e682e0>, <rdkit.Chem.rdchem.Mol object at 0x7f5838e68200>, <rdkit.Chem.rdchem.Mol object at 0x7f5838e68eb0>, <rdkit.Chem.rdchem.Mol object at 0x7f5838e69230>, '.', <rdkit.Chem.rdchem.Mol object at 0x7f5838ecb530>, <rdkit.Chem.rdchem.Mol object at 0x7f5838e68ba0>, <rdkit.Chem.rdchem.Mol object at 0x7f5838e68970>, <rdkit.Chem.rdchem.Mol object at 0x7f5838ecba70>, <rdkit.Chem.rdchem.Mol object at 0x7f5838e68740>, <rdkit.Chem.rdchem.Mol object at 0x7f5838e68350>, <rdkit.Chem.rdchem.Mol object at 0x7f5838e69460>, <rdkit.Chem.rdchem.Mol object at 0x7f5838e68430>]","[0, 0, 260, 261, 262, 263, 264, 265, 1, 266, 267, 268, 269, 270, 271, 272, 273]"
PBDB-T,IEICO-4Cl,-5.297714285714285,-3.4170000000000003,-5.56,-4.23,1.0,CB,DIO,150.0,PEDOT:PSS,PFN-Br,9.67,9.67,0.744,62.5,"[<rdkit.Chem.rdchem.Mol object at 0x7f5838eca6c0>, <rdkit.Chem.rdchem.Mol object at 0x7f5838e68580>, <rdkit.Chem.rdchem.Mol object at 0x7f5838e69150>, <rdkit.Chem.rdchem.Mol object at 0x7f5838e683c0>, <rdkit.Chem.rdchem.Mol object at 0x7f5838e69cb0>]","[<rdkit.Chem.rdchem.Mol object at 0x7f5838ecb8b0>, <rdkit.Chem.rdchem.Mol object at 0x7f5838e69fc0>, <rdkit.Chem.rdchem.Mol object at 0x7f5838e68b30>, <rdkit.Chem.rdchem.Mol object at 0x7f5838e69ee0>, <rdkit.Chem.rdchem.Mol object at 0x7f5838e69070>, <rdkit.Chem.rdchem.Mol object at 0x7f5838e68820>, <rdkit.Chem.rdchem.Mol object at 0x7f5838e68ac0>, <rdkit.Chem.rdchem.Mol object at 0x7f5838e68660>]","[<rdkit.Chem.rdchem.Mol object at 0x7f5838eca6c0>, <rdkit.Chem.rdchem.Mol object at 0x7f5838e68580>, <rdkit.Chem.rdchem.Mol object at 0x7f5838e69150>, <rdkit.Chem.rdchem.Mol object at 0x7f5838e683c0>, <rdkit.Chem.rdchem.Mol object at 0x7f5838e69cb0>, '.', <rdkit.Chem.rdchem.Mol object at 0x7f5838ecb8b0>, <rdkit.Chem.rdchem.Mol object at 0x7f5838e69fc0>, <rdkit.Chem.rdchem.Mol object at 0x7f5838e68b30>, <rdkit.Chem.rdchem.Mol object at 0x7f5838e69ee0>, <rdkit.Chem.rdchem.Mol object at 0x7f5838e69070>, <rdkit.Chem.rdchem.Mol object at 0x7f5838e68820>, <rdkit.Chem.rdchem.Mol object at 0x7f5838e68ac0>, <rdkit.Chem.rdchem.Mol object at 0x7f5838e68660>]","[0, 0, 0, 274, 275, 276, 277, 278, 1, 279, 280, 281, 282, 283, 284, 285, 286]"
PTB7-Th,IEICO-4Cl,-5.204782608695651,-3.5391891891891896,-5.56,-4.23,0.667,CB,DIO,150.0,PEDOT:PSS,PFN-Br,10.3,10.28,0.727,62.0,"[<rdkit.Chem.rdchem.Mol object at 0x7f5838e69f50>, <rdkit.Chem.rdchem.Mol object at 0x7f5838e690e0>, <rdkit.Chem.rdchem.Mol object at 0x7f5838e68890>, <rdkit.Chem.rdchem.Mol object at 0x7f5838e68c10>, <rdkit.Chem.rdchem.Mol object at 0x7f5838e69850>, <rdkit.Chem.rdchem.Mol object at 0x7f5838e68190>, <rdkit.Chem.rdchem.Mol object at 0x7f5838e68f20>]","[<rdkit.Chem.rdchem.Mol object at 0x7f5838e69310>, <rdkit.Chem.rdchem.Mol object at 0x7f5838e69000>, <rdkit.Chem.rdchem.Mol object at 0x7f5838e69690>, <rdkit.Chem.rdchem.Mol object at 0x7f5838e68040>, <rdkit.Chem.rdchem.Mol object at 0x7f5838e69540>, <rdkit.Chem.rdchem.Mol object at 0x7f5838e697e0>, <rdkit.Chem.rdchem.Mol object at 0x7f5838e693f0>, <rdkit.Chem.rdchem.Mol object at 0x7f5838e69b60>]","[<rdkit.Chem.rdchem.Mol object at 0x7f5838e69f50>, <rdkit.Chem.rdchem.Mol object at 0x7f5838e690e0>, <rdkit.Chem.rdchem.Mol object at 0x7f5838e68890>, <rdkit.Chem.rdchem.Mol object at 0x7f5838e68c10>, <rdkit.Chem.rdchem.Mol object at 0x7f5838e69850>, <rdkit.Chem.rdchem.Mol object at 0x7f5838e68190>, <rdkit.Chem.rdchem.Mol object at 0x7f5838e68f20>, '.', <rdkit.Chem.rdchem.Mol object at 0x7f5838e69310>, <rdkit.Chem.rdchem.Mol object at 0x7f5838e69000>, <rdkit.Chem.rdchem.Mol object at 0x7f5838e69690>, <rdkit.Chem.rdchem.Mol object at 0x7f5838e68040>, <rdkit.Chem.rdchem.Mol object at 0x7f5838e69540>, <rdkit.Chem.rdchem.Mol object at 0x7f5838e697e0>, <rdkit.Chem.rdchem.Mol object at 0x7f5838e693f0>, <rdkit.Chem.rdchem.Mol object at 0x7f5838e69b60>]","[0, 287, 288, 289, 290, 291, 292, 293, 1, 294, 295, 296, 297, 298, 299, 300, 301]"
J52,IEICO-4F,-5.218571428571429,-3.341428571428572,-5.309971428571429,-3.851028571428572,0.769,CB,_,130.0,MoOx,ZnO,8.2,8.2,0.704,56.9,"[<rdkit.Chem.rdchem.Mol object at 0x7f5838ecb5a0>, <rdkit.Chem.rdchem.Mol object at 0x7f5838e6a340>, <rdkit.Chem.rdchem.Mol object at 0x7f5838e699a0>, <rdkit.Chem.rdchem.Mol object at 0x7f5838e69a80>, <rdkit.Chem.rdchem.Mol object at 0x7f5838e69d20>, <rdkit.Chem.rdchem.Mol object at 0x7f5838e6a500>]","[<rdkit.Chem.rdchem.Mol object at 0x7f5838e6a6c0>, <rdkit.Chem.rdchem.Mol object at 0x7f5838e69a10>, <rdkit.Chem.rdchem.Mol object at 0x7f5838e686d0>, <rdkit.Chem.rdchem.Mol object at 0x7f5838e68120>, <rdkit.Chem.rdchem.Mol object at 0x7f5838e69930>, <rdkit.Chem.rdchem.Mol object at 0x7f5838e6a030>, <rdkit.Chem.rdchem.Mol object at 0x7f5838e6a730>, <rdkit.Chem.rdchem.Mol object at 0x7f5838e6a0a0>]","[<rdkit.Chem.rdchem.Mol object at 0x7f5838ecb5a0>, <rdkit.Chem.rdchem.Mol object at 0x7f5838e6a340>, <rdkit.Chem.rdchem.Mol object at 0x7f5838e699a0>, <rdkit.Chem.rdchem.Mol object at 0x7f5838e69a80>, <rdkit.Chem.rdchem.Mol object at 0x7f5838e69d20>, <rdkit.Chem.rdchem.Mol object at 0x7f5838e6a500>, '.', <rdkit.Chem.rdchem.Mol object at 0x7f5838e6a6c0>, <rdkit.Chem.rdchem.Mol object at 0x7f5838e69a10>, <rdkit.Chem.rdchem.Mol object at 0x7f5838e686d0>, <rdkit.Chem.rdchem.Mol object at 0x7f5838e68120>, <rdkit.Chem.rdchem.Mol object at 0x7f5838e69930>, <rdkit.Chem.rdchem.Mol object at 0x7f5838e6a030>, <rdkit.Chem.rdchem.Mol object at 0x7f5838e6a730>, <rdkit.Chem.rdchem.Mol object at 0x7f5838e6a0a0>]","[0, 0, 302, 303, 304, 305, 306, 307, 1, 308, 309, 310, 311, 312, 313, 314, 315]"
J52,i-IEICO-4F,-5.218571428571429,-3.341428571428572,-5.0183,-3.3307,1.0,CB,_,130.0,MoOx,ZnO,13.18,13.18,0.849,67.9,"[<rdkit.Chem.rdchem.Mol object at 0x7f5838e6a8f0>, <rdkit.Chem.rdchem.Mol object at 0x7f5838e69c40>, <rdkit.Chem.rdchem.Mol object at 0x7f5838e694d0>, <rdkit.Chem.rdchem.Mol object at 0x7f5838e698c0>, <rdkit.Chem.rdchem.Mol object at 0x7f5838e6a1f0>, <rdkit.Chem.rdchem.Mol object at 0x7f5838e6ab20>]","[<rdkit.Chem.rdchem.Mol object at 0x7f5838e6ace0>, <rdkit.Chem.rdchem.Mol object at 0x7f5838e6a420>, <rdkit.Chem.rdchem.Mol object at 0x7f5838e6a180>, <rdkit.Chem.rdchem.Mol object at 0x7f5838e689e0>, <rdkit.Chem.rdchem.Mol object at 0x7f5838e6a650>, <rdkit.Chem.rdchem.Mol object at 0x7f5838e687b0>, <rdkit.Chem.rdchem.Mol object at 0x7f5838e6a880>, <rdkit.Chem.rdchem.Mol object at 0x7f5838e6aab0>]","[<rdkit.Chem.rdchem.Mol object at 0x7f5838e6a8f0>, <rdkit.Chem.rdchem.Mol object at 0x7f5838e69c40>, <rdkit.Chem.rdchem.Mol object at 0x7f5838e694d0>, <rdkit.Chem.rdchem.Mol object at 0x7f5838e698c0>, <rdkit.Chem.rdchem.Mol object at 0x7f5838e6a1f0>, <rdkit.Chem.rdchem.Mol object at 0x7f5838e6ab20>, '.', <rdkit.Chem.rdchem.Mol object at 0x7f5838e6ace0>, <rdkit.Chem.rdchem.Mol object at 0x7f5838e6a420>, <rdkit.Chem.rdchem.Mol object at 0x7f5838e6a180>, <rdkit.Chem.rdchem.Mol object at 0x7f5838e689e0>, <rdkit.Chem.rdchem.Mol object at 0x7f5838e6a650>, <rdkit.Chem.rdchem.Mol object at 0x7f5838e687b0>, <rdkit.Chem.rdchem.Mol object at 0x7f5838e6a880>, <rdkit.Chem.rdchem.Mol object at 0x7f5838e6aab0>]","[0, 0, 316, 317, 318, 319, 320, 321, 1, 322, 323, 324, 325, 326, 327, 328, 329]"
J71,ITCPTC,-5.353333333333333,-3.4318181818181825,-5.604000000000001,-3.858000000000001,1.0,CF,_,150.0,PEDOT:PSS,PDINO,11.63,11.63,0.896,74.1,"[<rdkit.Chem.rdchem.Mol object at 0x7f5838e6af10>, <rdkit.Chem.rdchem.Mol object at 0x7f5838e69bd0>, <rdkit.Chem.rdchem.Mol object at 0x7f5838e691c0>, <rdkit.Chem.rdchem.Mol object at 0x7f5838e6a490>, <rdkit.Chem.rdchem.Mol object at 0x7f5838e69e00>, <rdkit.Chem.rdchem.Mol object at 0x7f5838e6a3b0>]","[<rdkit.Chem.rdchem.Mol object at 0x7f5838e69770>, <rdkit.Chem.rdchem.Mol object at 0x7f5838e6a260>, <rdkit.Chem.rdchem.Mol object at 0x7f5838e6a810>, <rdkit.Chem.rdchem.Mol object at 0x7f5838e69d90>, <rdkit.Chem.rdchem.Mol object at 0x7f5838e69380>]","[<rdkit.Chem.rdchem.Mol object at 0x7f5838e6af10>, <rdkit.Chem.rdchem.Mol object at 0x7f5838e69bd0>, <rdkit.Chem.rdchem.Mol object at 0x7f5838e691c0>, <rdkit.Chem.rdchem.Mol object at 0x7f5838e6a490>, <rdkit.Chem.rdchem.Mol object at 0x7f5838e69e00>, <rdkit.Chem.rdchem.Mol object at 0x7f5838e6a3b0>, '.', <rdkit.Chem.rdchem.Mol object at 0x7f5838e69770>, <rdkit.Chem.rdchem.Mol object at 0x7f5838e6a260>, <rdkit.Chem.rdchem.Mol object at 0x7f5838e6a810>, <rdkit.Chem.rdchem.Mol object at 0x7f5838e69d90>, <rdkit.Chem.rdchem.Mol object at 0x7f5838e69380>]","[0, 0, 0, 0, 0, 330, 331, 332, 333, 334, 335, 1, 336, 337, 338, 339, 340]"
J71,MeIC,-5.353333333333333,-3.4318181818181825,-5.57,-3.93,1.0,CF,_,150.0,PEDOT:PSS,PDINO,12.54,12.54,0.918,74.2,"[<rdkit.Chem.rdchem.Mol object at 0x7f5838e6b060>, <rdkit.Chem.rdchem.Mol object at 0x7f5838e6a570>, <rdkit.Chem.rdchem.Mol object at 0x7f5838e6a9d0>, <rdkit.Chem.rdchem.Mol object at 0x7f5838e6ac00>, <rdkit.Chem.rdchem.Mol object at 0x7f5838e6ad50>, <rdkit.Chem.rdchem.Mol object at 0x7f5838e6b290>]","[<rdkit.Chem.rdchem.Mol object at 0x7f5838e6ab90>, <rdkit.Chem.rdchem.Mol object at 0x7f5838e692a0>, <rdkit.Chem.rdchem.Mol object at 0x7f5838e69e70>, <rdkit.Chem.rdchem.Mol object at 0x7f5838e6adc0>, <rdkit.Chem.rdchem.Mol object at 0x7f5838e6a960>]","[<rdkit.Chem.rdchem.Mol object at 0x7f5838e6b060>, <rdkit.Chem.rdchem.Mol object at 0x7f5838e6a570>, <rdkit.Chem.rdchem.Mol object at 0x7f5838e6a9d0>, <rdkit.Chem.rdchem.Mol object at 0x7f5838e6ac00>, <rdkit.Chem.rdchem.Mol object at 0x7f5838e6ad50>, <rdkit.Chem.rdchem.Mol object at 0x7f5838e6b290>, '.', <rdkit.Chem.rdchem.Mol object at 0x7f5838e6ab90>, <rdkit.Chem.rdchem.Mol object at 0x7f5838e692a0>, <rdkit.Chem.rdchem.Mol object at 0x7f5838e69e70>, <rdkit.Chem.rdchem.Mol object at 0x7f5838e6adc0>, <rdkit.Chem.rdchem.Mol object at 0x7f5838e6a960>]","[0, 0, 0, 0, 0, 341, 342, 343, 344, 345, 346, 1, 347, 348, 349, 350, 351]"
J40,ITIC,-5.4,-2.9,-5.574146341463415,-3.915,1.0,CF,_,120.0,PEDOT:PSS,PDINO,6.48,6.52,0.89,60.13,"[<rdkit.Chem.rdchem.Mol object at 0x7f5838e6b5a0>, <rdkit.Chem.rdchem.Mol object at 0x7f5838e6a7a0>, <rdkit.Chem.rdchem.Mol object at 0x7f5838e68900>, <rdkit.Chem.rdchem.Mol object at 0x7f5838e68a50>, <rdkit.Chem.rdchem.Mol object at 0x7f5838e6aff0>, <rdkit.Chem.rdchem.Mol object at 0x7f5838e6b220>, <rdkit.Chem.rdchem.Mol object at 0x7f5838e68dd0>]","[<rdkit.Chem.rdchem.Mol object at 0x7f5838e6ac70>, <rdkit.Chem.rdchem.Mol object at 0x7f5838e6b3e0>, <rdkit.Chem.rdchem.Mol object at 0x7f5838e6b370>, <rdkit.Chem.rdchem.Mol object at 0x7f5838e6b0d0>, <rdkit.Chem.rdchem.Mol object at 0x7f5838e6b6f0>]","[<rdkit.Chem.rdchem.Mol object at 0x7f5838e6b5a0>, <rdkit.Chem.rdchem.Mol object at 0x7f5838e6a7a0>, <rdkit.Chem.rdchem.Mol object at 0x7f5838e68900>, <rdkit.Chem.rdchem.Mol object at 0x7f5838e68a50>, <rdkit.Chem.rdchem.Mol object at 0x7f5838e6aff0>, <rdkit.Chem.rdchem.Mol object at 0x7f5838e6b220>, <rdkit.Chem.rdchem.Mol object at 0x7f5838e68dd0>, '.', <rdkit.Chem.rdchem.Mol object at 0x7f5838e6ac70>, <rdkit.Chem.rdchem.Mol object at 0x7f5838e6b3e0>, <rdkit.Chem.rdchem.Mol object at 0x7f5838e6b370>, <rdkit.Chem.rdchem.Mol object at 0x7f5838e6b0d0>, <rdkit.Chem.rdchem.Mol object at 0x7f5838e6b6f0>]","[0, 0, 0, 0, 352, 353, 354, 355, 356, 357, 358, 1, 359, 360, 361, 362, 363]"
J50,ITIC,-5.13,-3.16,-5.574146341463415,-3.915,0.5,CF,_,150.0,PEDOT:PSS,PDINO,4.8,4.87,0.71,53.0,"[<rdkit.Chem.rdchem.Mol object at 0x7f5838e6b990>, <rdkit.Chem.rdchem.Mol object at 0x7f5838e6ba70>, <rdkit.Chem.rdchem.Mol object at 0x7f5838e6b760>, <rdkit.Chem.rdchem.Mol object at 0x7f5838e6ae30>, <rdkit.Chem.rdchem.Mol object at 0x7f5838e6b1b0>, <rdkit.Chem.rdchem.Mol object at 0x7f5838e6af80>]","[<rdkit.Chem.rdchem.Mol object at 0x7f5838e6be60>, <rdkit.Chem.rdchem.Mol object at 0x7f5838e69620>, <rdkit.Chem.rdchem.Mol object at 0x7f5838e68510>, <rdkit.Chem.rdchem.Mol object at 0x7f5838e6b680>, <rdkit.Chem.rdchem.Mol object at 0x7f5838e6b610>]","[<rdkit.Chem.rdchem.Mol object at 0x7f5838e6b990>, <rdkit.Chem.rdchem.Mol object at 0x7f5838e6ba70>, <rdkit.Chem.rdchem.Mol object at 0x7f5838e6b760>, <rdkit.Chem.rdchem.Mol object at 0x7f5838e6ae30>, <rdkit.Chem.rdchem.Mol object at 0x7f5838e6b1b0>, <rdkit.Chem.rdchem.Mol object at 0x7f5838e6af80>, '.', <rdkit.Chem.rdchem.Mol object at 0x7f5838e6be60>, <rdkit.Chem.rdchem.Mol object at 0x7f5838e69620>, <rdkit.Chem.rdchem.Mol object at 0x7f5838e68510>, <rdkit.Chem.rdchem.Mol object at 0x7f5838e6b680>, <rdkit.Chem.rdchem.Mol object at 0x7f5838e6b610>]","[0, 0, 0, 0, 0, 364, 365, 366, 367, 368, 369, 1, 370, 371, 372, 373, 374]"
J51,ITIC,-5.24,-3.056666666666666,-5.574146341463415,-3.915,0.5,CF,_,150.0,PEDOT:PSS,PDINO,9.26,9.32,0.82,69.0,"[<rdkit.Chem.rdchem.Mol object at 0x7f5838e6b840>, <rdkit.Chem.rdchem.Mol object at 0x7f5838e6bbc0>, <rdkit.Chem.rdchem.Mol object at 0x7f5838e6bf40>, <rdkit.Chem.rdchem.Mol object at 0x7f5838e6b4c0>, <rdkit.Chem.rdchem.Mol object at 0x7f5838e6bd10>, <rdkit.Chem.rdchem.Mol object at 0x7f5838e9c580>]","[<rdkit.Chem.rdchem.Mol object at 0x7f5838e6bc30>, <rdkit.Chem.rdchem.Mol object at 0x7f5838e6a5e0>, <rdkit.Chem.rdchem.Mol object at 0x7f5838e6bb50>, <rdkit.Chem.rdchem.Mol object at 0x7f5838e6b300>, <rdkit.Chem.rdchem.Mol object at 0x7f5838e9c040>]","[<rdkit.Chem.rdchem.Mol object at 0x7f5838e6b840>, <rdkit.Chem.rdchem.Mol object at 0x7f5838e6bbc0>, <rdkit.Chem.rdchem.Mol object at 0x7f5838e6bf40>, <rdkit.Chem.rdchem.Mol object at 0x7f5838e6b4c0>, <rdkit.Chem.rdchem.Mol object at 0x7f5838e6bd10>, <rdkit.Chem.rdchem.Mol object at 0x7f5838e9c580>, '.', <rdkit.Chem.rdchem.Mol object at 0x7f5838e6bc30>, <rdkit.Chem.rdchem.Mol object at 0x7f5838e6a5e0>, <rdkit.Chem.rdchem.Mol object at 0x7f5838e6bb50>, <rdkit.Chem.rdchem.Mol object at 0x7f5838e6b300>, <rdkit.Chem.rdchem.Mol object at 0x7f5838e9c040>]","[0, 0, 0, 0, 0, 375, 376, 377, 378, 379, 380, 1, 381, 382, 383, 384, 385]"