Donor,Acceptor,HOMO_D_eV,LUMO_D_eV,HOMO_A_eV,LUMO_A_eV,D_A_ratio_m_m,solvent,solvent_additive,annealing_temperature,hole_contact_layer,electron_contact_layer,PCE_percent,calc_PCE_percent,Voc_V,FF_percent,Donor_BRICS,Acceptor_BRICS,DA_pair_BRICS,DA_tokenized_BRICS
PBQ-0F,ITIC,-5.18,-3.48,-5.574146341463415,-3.915,1.0,THF,isopropanol,160.0,MoOx,ZnO,6.68,6.68,0.69,59.91,"[<rdkit.Chem.rdchem.Mol object at 0x7f5838f2e9d0>, <rdkit.Chem.rdchem.Mol object at 0x7f5838f3a8f0>, <rdkit.Chem.rdchem.Mol object at 0x7f5838f3ab20>, <rdkit.Chem.rdchem.Mol object at 0x7f5838f3a0a0>, <rdkit.Chem.rdchem.Mol object at 0x7f5838f3a500>, <rdkit.Chem.rdchem.Mol object at 0x7f5838f3a260>, <rdkit.Chem.rdchem.Mol object at 0x7f5838f39af0>, <rdkit.Chem.rdchem.Mol object at 0x7f5838f3b0d0>]","[<rdkit.Chem.rdchem.Mol object at 0x7f5838f38200>, <rdkit.Chem.rdchem.Mol object at 0x7f5838f38e40>, <rdkit.Chem.rdchem.Mol object at 0x7f5838f3af80>, <rdkit.Chem.rdchem.Mol object at 0x7f5838f387b0>, <rdkit.Chem.rdchem.Mol object at 0x7f5838f39540>]","[<rdkit.Chem.rdchem.Mol object at 0x7f5838f2e9d0>, <rdkit.Chem.rdchem.Mol object at 0x7f5838f3a8f0>, <rdkit.Chem.rdchem.Mol object at 0x7f5838f3ab20>, <rdkit.Chem.rdchem.Mol object at 0x7f5838f3a0a0>, <rdkit.Chem.rdchem.Mol object at 0x7f5838f3a500>, <rdkit.Chem.rdchem.Mol object at 0x7f5838f3a260>, <rdkit.Chem.rdchem.Mol object at 0x7f5838f39af0>, <rdkit.Chem.rdchem.Mol object at 0x7f5838f3b0d0>, '.', <rdkit.Chem.rdchem.Mol object at 0x7f5838f38200>, <rdkit.Chem.rdchem.Mol object at 0x7f5838f38e40>, <rdkit.Chem.rdchem.Mol object at 0x7f5838f3af80>, <rdkit.Chem.rdchem.Mol object at 0x7f5838f387b0>, <rdkit.Chem.rdchem.Mol object at 0x7f5838f39540>]","[0, 0, 0, 1006, 1007, 1008, 1009, 1010, 1011, 1012, 1013, 1, 1014, 1015, 1016, 1017, 1018]"
PBQ-QF,ITIC,-5.34,-3.62,-5.574146341463415,-3.915,1.0,THF,isopropanol,160.0,MoOx,ZnO,8.9,8.9,0.83,62.49,"[<rdkit.Chem.rdchem.Mol object at 0x7f5838f39930>, <rdkit.Chem.rdchem.Mol object at 0x7f5838f39380>, <rdkit.Chem.rdchem.Mol object at 0x7f5838f39770>, <rdkit.Chem.rdchem.Mol object at 0x7f5838f38270>, <rdkit.Chem.rdchem.Mol object at 0x7f5838f398c0>, <rdkit.Chem.rdchem.Mol object at 0x7f5838f39d20>, <rdkit.Chem.rdchem.Mol object at 0x7f5838f3a490>, <rdkit.Chem.rdchem.Mol object at 0x7f5838f3b840>]","[<rdkit.Chem.rdchem.Mol object at 0x7f5838f3b680>, <rdkit.Chem.rdchem.Mol object at 0x7f5838f39150>, <rdkit.Chem.rdchem.Mol object at 0x7f5838f3b450>, <rdkit.Chem.rdchem.Mol object at 0x7f5838f39230>, <rdkit.Chem.rdchem.Mol object at 0x7f5838f3ac70>]","[<rdkit.Chem.rdchem.Mol object at 0x7f5838f39930>, <rdkit.Chem.rdchem.Mol object at 0x7f5838f39380>, <rdkit.Chem.rdchem.Mol object at 0x7f5838f39770>, <rdkit.Chem.rdchem.Mol object at 0x7f5838f38270>, <rdkit.Chem.rdchem.Mol object at 0x7f5838f398c0>, <rdkit.Chem.rdchem.Mol object at 0x7f5838f39d20>, <rdkit.Chem.rdchem.Mol object at 0x7f5838f3a490>, <rdkit.Chem.rdchem.Mol object at 0x7f5838f3b840>, '.', <rdkit.Chem.rdchem.Mol object at 0x7f5838f3b680>, <rdkit.Chem.rdchem.Mol object at 0x7f5838f39150>, <rdkit.Chem.rdchem.Mol object at 0x7f5838f3b450>, <rdkit.Chem.rdchem.Mol object at 0x7f5838f39230>, <rdkit.Chem.rdchem.Mol object at 0x7f5838f3ac70>]","[0, 0, 0, 1019, 1020, 1021, 1022, 1023, 1024, 1025, 1026, 1, 1027, 1028, 1029, 1030, 1031]"
PBQ-4F,ITIC,-5.49,-3.7,-5.574146341463415,-3.915,1.0,THF,isopropanol,160.0,MoOx,ZnO,11.34,11.34,0.95,66.8,"[<rdkit.Chem.rdchem.Mol object at 0x7f5838f3aab0>, <rdkit.Chem.rdchem.Mol object at 0x7f5838f3aa40>, <rdkit.Chem.rdchem.Mol object at 0x7f5838f3ab90>, <rdkit.Chem.rdchem.Mol object at 0x7f5838f3a650>, <rdkit.Chem.rdchem.Mol object at 0x7f5838f3b7d0>, <rdkit.Chem.rdchem.Mol object at 0x7f5838f39bd0>, <rdkit.Chem.rdchem.Mol object at 0x7f5838f3aff0>, <rdkit.Chem.rdchem.Mol object at 0x7f5838f384a0>, <rdkit.Chem.rdchem.Mol object at 0x7f5838f3bdf0>]","[<rdkit.Chem.rdchem.Mol object at 0x7f5838f3bbc0>, <rdkit.Chem.rdchem.Mol object at 0x7f5838f3b300>, <rdkit.Chem.rdchem.Mol object at 0x7f5838f3b990>, <rdkit.Chem.rdchem.Mol object at 0x7f5838f3b3e0>, <rdkit.Chem.rdchem.Mol object at 0x7f5838f39310>]","[<rdkit.Chem.rdchem.Mol object at 0x7f5838f3aab0>, <rdkit.Chem.rdchem.Mol object at 0x7f5838f3aa40>, <rdkit.Chem.rdchem.Mol object at 0x7f5838f3ab90>, <rdkit.Chem.rdchem.Mol object at 0x7f5838f3a650>, <rdkit.Chem.rdchem.Mol object at 0x7f5838f3b7d0>, <rdkit.Chem.rdchem.Mol object at 0x7f5838f39bd0>, <rdkit.Chem.rdchem.Mol object at 0x7f5838f3aff0>, <rdkit.Chem.rdchem.Mol object at 0x7f5838f384a0>, <rdkit.Chem.rdchem.Mol object at 0x7f5838f3bdf0>, '.', <rdkit.Chem.rdchem.Mol object at 0x7f5838f3bbc0>, <rdkit.Chem.rdchem.Mol object at 0x7f5838f3b300>, <rdkit.Chem.rdchem.Mol object at 0x7f5838f3b990>, <rdkit.Chem.rdchem.Mol object at 0x7f5838f3b3e0>, <rdkit.Chem.rdchem.Mol object at 0x7f5838f39310>]","[0, 0, 1032, 1033, 1034, 1035, 1036, 1037, 1038, 1039, 1040, 1, 1041, 1042, 1043, 1044, 1045]"
PBTA-TF,IT-M,-5.36,-3.4200000000000004,-5.513571428571429,-3.808,1.0,CF,DIO,25.0,PEDOT:PSS,PFN-Br,12.2,12.23,0.97,71.0,"[<rdkit.Chem.rdchem.Mol object at 0x7f5838f38350>, <rdkit.Chem.rdchem.Mol object at 0x7f5838f38890>, <rdkit.Chem.rdchem.Mol object at 0x7f5838f38dd0>, <rdkit.Chem.rdchem.Mol object at 0x7f5838f3b370>, <rdkit.Chem.rdchem.Mol object at 0x7f5838f39ee0>, <rdkit.Chem.rdchem.Mol object at 0x7f5838f397e0>, <rdkit.Chem.rdchem.Mol object at 0x7f5838f39c40>]","[<rdkit.Chem.rdchem.Mol object at 0x7f5838f3a1f0>, <rdkit.Chem.rdchem.Mol object at 0x7f5838f3a180>, <rdkit.Chem.rdchem.Mol object at 0x7f5838f39e70>, <rdkit.Chem.rdchem.Mol object at 0x7f5838f3a340>, <rdkit.Chem.rdchem.Mol object at 0x7f5838f391c0>]","[<rdkit.Chem.rdchem.Mol object at 0x7f5838f38350>, <rdkit.Chem.rdchem.Mol object at 0x7f5838f38890>, <rdkit.Chem.rdchem.Mol object at 0x7f5838f38dd0>, <rdkit.Chem.rdchem.Mol object at 0x7f5838f3b370>, <rdkit.Chem.rdchem.Mol object at 0x7f5838f39ee0>, <rdkit.Chem.rdchem.Mol object at 0x7f5838f397e0>, <rdkit.Chem.rdchem.Mol object at 0x7f5838f39c40>, '.', <rdkit.Chem.rdchem.Mol object at 0x7f5838f3a1f0>, <rdkit.Chem.rdchem.Mol object at 0x7f5838f3a180>, <rdkit.Chem.rdchem.Mol object at 0x7f5838f39e70>, <rdkit.Chem.rdchem.Mol object at 0x7f5838f3a340>, <rdkit.Chem.rdchem.Mol object at 0x7f5838f391c0>]","[0, 0, 0, 0, 1058, 1059, 1060, 1061, 1062, 1063, 1064, 1, 1065, 1066, 1067, 1068, 1069]"
PBTA-TF,IT-4F,-5.36,-3.4200000000000004,-5.66875,-4.060416666666667,1.0,CF,DIO,25.0,PEDOT:PSS,PFN-Br,10.6,10.64,0.73,72.0,"[<rdkit.Chem.rdchem.Mol object at 0x7f5838f3bd10>, <rdkit.Chem.rdchem.Mol object at 0x7f5838f38190>, <rdkit.Chem.rdchem.Mol object at 0x7f5838f394d0>, <rdkit.Chem.rdchem.Mol object at 0x7f5838f39460>, <rdkit.Chem.rdchem.Mol object at 0x7f5838f3ac00>, <rdkit.Chem.rdchem.Mol object at 0x7f5838f3a2d0>, <rdkit.Chem.rdchem.Mol object at 0x7f5838f38430>]","[<rdkit.Chem.rdchem.Mol object at 0x7f5838f3a110>, <rdkit.Chem.rdchem.Mol object at 0x7f5838f3ad50>, <rdkit.Chem.rdchem.Mol object at 0x7f5838f3a420>, <rdkit.Chem.rdchem.Mol object at 0x7f5838f38ba0>, <rdkit.Chem.rdchem.Mol object at 0x7f5838f39620>]","[<rdkit.Chem.rdchem.Mol object at 0x7f5838f3bd10>, <rdkit.Chem.rdchem.Mol object at 0x7f5838f38190>, <rdkit.Chem.rdchem.Mol object at 0x7f5838f394d0>, <rdkit.Chem.rdchem.Mol object at 0x7f5838f39460>, <rdkit.Chem.rdchem.Mol object at 0x7f5838f3ac00>, <rdkit.Chem.rdchem.Mol object at 0x7f5838f3a2d0>, <rdkit.Chem.rdchem.Mol object at 0x7f5838f38430>, '.', <rdkit.Chem.rdchem.Mol object at 0x7f5838f3a110>, <rdkit.Chem.rdchem.Mol object at 0x7f5838f3ad50>, <rdkit.Chem.rdchem.Mol object at 0x7f5838f3a420>, <rdkit.Chem.rdchem.Mol object at 0x7f5838f38ba0>, <rdkit.Chem.rdchem.Mol object at 0x7f5838f39620>]","[0, 0, 0, 0, 1070, 1071, 1072, 1073, 1074, 1075, 1076, 1, 1077, 1078, 1079, 1080, 1081]"
PBTA-TF,IT-M,-5.36,-3.4200000000000004,-5.513571428571429,-3.808,1.0,THF,isopropanol,25.0,PEDOT:PSS,PFN-Br,12.0,11.82,0.96,67.0,"[<rdkit.Chem.rdchem.Mol object at 0x7f5838f3ba70>, <rdkit.Chem.rdchem.Mol object at 0x7f5838f3a030>, <rdkit.Chem.rdchem.Mol object at 0x7f5838f3b6f0>, <rdkit.Chem.rdchem.Mol object at 0x7f5838f38cf0>, <rdkit.Chem.rdchem.Mol object at 0x7f5838f3b290>, <rdkit.Chem.rdchem.Mol object at 0x7f5838f3b060>, <rdkit.Chem.rdchem.Mol object at 0x7f5838f3b1b0>]","[<rdkit.Chem.rdchem.Mol object at 0x7f5838f393f0>, <rdkit.Chem.rdchem.Mol object at 0x7f5838f3a810>, <rdkit.Chem.rdchem.Mol object at 0x7f5838f3a5e0>, <rdkit.Chem.rdchem.Mol object at 0x7f5838f3b610>, <rdkit.Chem.rdchem.Mol object at 0x7f5838f392a0>]","[<rdkit.Chem.rdchem.Mol object at 0x7f5838f3ba70>, <rdkit.Chem.rdchem.Mol object at 0x7f5838f3a030>, <rdkit.Chem.rdchem.Mol object at 0x7f5838f3b6f0>, <rdkit.Chem.rdchem.Mol object at 0x7f5838f38cf0>, <rdkit.Chem.rdchem.Mol object at 0x7f5838f3b290>, <rdkit.Chem.rdchem.Mol object at 0x7f5838f3b060>, <rdkit.Chem.rdchem.Mol object at 0x7f5838f3b1b0>, '.', <rdkit.Chem.rdchem.Mol object at 0x7f5838f393f0>, <rdkit.Chem.rdchem.Mol object at 0x7f5838f3a810>, <rdkit.Chem.rdchem.Mol object at 0x7f5838f3a5e0>, <rdkit.Chem.rdchem.Mol object at 0x7f5838f3b610>, <rdkit.Chem.rdchem.Mol object at 0x7f5838f392a0>]","[0, 0, 0, 0, 1082, 1083, 1084, 1085, 1086, 1087, 1088, 1, 1089, 1090, 1091, 1092, 1093]"
PBTA-TF,IT-M,-5.36,-3.4200000000000004,-5.513571428571429,-3.808,1.0,o-xylene,PN,25.0,PEDOT:PSS,PFN-Br,13.1,13.09,0.97,72.0,"[<rdkit.Chem.rdchem.Mol object at 0x7f5838f39850>, <rdkit.Chem.rdchem.Mol object at 0x7f5838f3b5a0>, <rdkit.Chem.rdchem.Mol object at 0x7f5838f3b4c0>, <rdkit.Chem.rdchem.Mol object at 0x7f5838f39fc0>, <rdkit.Chem.rdchem.Mol object at 0x7f5838f3ace0>, <rdkit.Chem.rdchem.Mol object at 0x7f5838f39b60>, <rdkit.Chem.rdchem.Mol object at 0x7f5838f44350>]","[<rdkit.Chem.rdchem.Mol object at 0x7f5838f3b530>, <rdkit.Chem.rdchem.Mol object at 0x7f5838f3af10>, <rdkit.Chem.rdchem.Mol object at 0x7f5838f3a7a0>, <rdkit.Chem.rdchem.Mol object at 0x7f5838f3bed0>, <rdkit.Chem.rdchem.Mol object at 0x7f5838f395b0>]","[<rdkit.Chem.rdchem.Mol object at 0x7f5838f39850>, <rdkit.Chem.rdchem.Mol object at 0x7f5838f3b5a0>, <rdkit.Chem.rdchem.Mol object at 0x7f5838f3b4c0>, <rdkit.Chem.rdchem.Mol object at 0x7f5838f39fc0>, <rdkit.Chem.rdchem.Mol object at 0x7f5838f3ace0>, <rdkit.Chem.rdchem.Mol object at 0x7f5838f39b60>, <rdkit.Chem.rdchem.Mol object at 0x7f5838f44350>, '.', <rdkit.Chem.rdchem.Mol object at 0x7f5838f3b530>, <rdkit.Chem.rdchem.Mol object at 0x7f5838f3af10>, <rdkit.Chem.rdchem.Mol object at 0x7f5838f3a7a0>, <rdkit.Chem.rdchem.Mol object at 0x7f5838f3bed0>, <rdkit.Chem.rdchem.Mol object at 0x7f5838f395b0>]","[0, 0, 0, 0, 1094, 1095, 1096, 1097, 1098, 1099, 1100, 1, 1101, 1102, 1103, 1104, 1105]"
PBDB-T-SF,IT-4F,-5.41,-3.62,-5.66875,-4.060416666666667,1.0,CB,DIO,25.0,MoOx,ZnO,13.1,13.1,0.88,71.3,"[<rdkit.Chem.rdchem.Mol object at 0x7f5838f3bb50>, <rdkit.Chem.rdchem.Mol object at 0x7f5838f44eb0>, <rdkit.Chem.rdchem.Mol object at 0x7f5838f447b0>, <rdkit.Chem.rdchem.Mol object at 0x7f5838f44970>, <rdkit.Chem.rdchem.Mol object at 0x7f5838f44580>, <rdkit.Chem.rdchem.Mol object at 0x7f5838f449e0>]","[<rdkit.Chem.rdchem.Mol object at 0x7f5838f3be60>, <rdkit.Chem.rdchem.Mol object at 0x7f5838f44e40>, <rdkit.Chem.rdchem.Mol object at 0x7f5838f39e00>, <rdkit.Chem.rdchem.Mol object at 0x7f5838f3bca0>, <rdkit.Chem.rdchem.Mol object at 0x7f5838f44040>]","[<rdkit.Chem.rdchem.Mol object at 0x7f5838f3bb50>, <rdkit.Chem.rdchem.Mol object at 0x7f5838f44eb0>, <rdkit.Chem.rdchem.Mol object at 0x7f5838f447b0>, <rdkit.Chem.rdchem.Mol object at 0x7f5838f44970>, <rdkit.Chem.rdchem.Mol object at 0x7f5838f44580>, <rdkit.Chem.rdchem.Mol object at 0x7f5838f449e0>, '.', <rdkit.Chem.rdchem.Mol object at 0x7f5838f3be60>, <rdkit.Chem.rdchem.Mol object at 0x7f5838f44e40>, <rdkit.Chem.rdchem.Mol object at 0x7f5838f39e00>, <rdkit.Chem.rdchem.Mol object at 0x7f5838f3bca0>, <rdkit.Chem.rdchem.Mol object at 0x7f5838f44040>]","[0, 0, 0, 0, 0, 1116, 1117, 1118, 1119, 1120, 1121, 1, 1122, 1123, 1124, 1125, 1126]"
PBDB-T,ITIC,-5.297714285714285,-3.4170000000000003,-5.574146341463415,-3.915,1.0,CB,DIO,25.0,MoOx,ZnO,11.05,11.05,0.9,72.1,"[<rdkit.Chem.rdchem.Mol object at 0x7f5838f3a570>, <rdkit.Chem.rdchem.Mol object at 0x7f5838f450e0>, <rdkit.Chem.rdchem.Mol object at 0x7f5838f44270>, <rdkit.Chem.rdchem.Mol object at 0x7f5838f44900>, <rdkit.Chem.rdchem.Mol object at 0x7f5838f45460>]","[<rdkit.Chem.rdchem.Mol object at 0x7f5838f39690>, <rdkit.Chem.rdchem.Mol object at 0x7f5838f45620>, <rdkit.Chem.rdchem.Mol object at 0x7f5838f3a960>, <rdkit.Chem.rdchem.Mol object at 0x7f5838f454d0>, <rdkit.Chem.rdchem.Mol object at 0x7f5838f453f0>]","[<rdkit.Chem.rdchem.Mol object at 0x7f5838f3a570>, <rdkit.Chem.rdchem.Mol object at 0x7f5838f450e0>, <rdkit.Chem.rdchem.Mol object at 0x7f5838f44270>, <rdkit.Chem.rdchem.Mol object at 0x7f5838f44900>, <rdkit.Chem.rdchem.Mol object at 0x7f5838f45460>, '.', <rdkit.Chem.rdchem.Mol object at 0x7f5838f39690>, <rdkit.Chem.rdchem.Mol object at 0x7f5838f45620>, <rdkit.Chem.rdchem.Mol object at 0x7f5838f3a960>, <rdkit.Chem.rdchem.Mol object at 0x7f5838f454d0>, <rdkit.Chem.rdchem.Mol object at 0x7f5838f453f0>]","[0, 0, 0, 0, 0, 0, 1127, 1128, 1129, 1130, 1131, 1, 1132, 1133, 1134, 1135, 1136]"
PCDTBT-C12,SM2,-5.23,-3.26,-5.98,-3.62,0.5,DCB,_,90.0,PEDOT:PSS,LiF,0.74,0.74,1.11,30.0,"[<rdkit.Chem.rdchem.Mol object at 0x7f5838f445f0>, <rdkit.Chem.rdchem.Mol object at 0x7f5838f459a0>, <rdkit.Chem.rdchem.Mol object at 0x7f5838f3b760>, <rdkit.Chem.rdchem.Mol object at 0x7f5838f44dd0>, <rdkit.Chem.rdchem.Mol object at 0x7f5838f45230>, <rdkit.Chem.rdchem.Mol object at 0x7f5838f45a80>, <rdkit.Chem.rdchem.Mol object at 0x7f5838f44c80>]","[<rdkit.Chem.rdchem.Mol object at 0x7f5838f39d90>, <rdkit.Chem.rdchem.Mol object at 0x7f5838f44cf0>, <rdkit.Chem.rdchem.Mol object at 0x7f5838f44ac0>, <rdkit.Chem.rdchem.Mol object at 0x7f5838f44660>]","[<rdkit.Chem.rdchem.Mol object at 0x7f5838f445f0>, <rdkit.Chem.rdchem.Mol object at 0x7f5838f459a0>, <rdkit.Chem.rdchem.Mol object at 0x7f5838f3b760>, <rdkit.Chem.rdchem.Mol object at 0x7f5838f44dd0>, <rdkit.Chem.rdchem.Mol object at 0x7f5838f45230>, <rdkit.Chem.rdchem.Mol object at 0x7f5838f45a80>, <rdkit.Chem.rdchem.Mol object at 0x7f5838f44c80>, '.', <rdkit.Chem.rdchem.Mol object at 0x7f5838f39d90>, <rdkit.Chem.rdchem.Mol object at 0x7f5838f44cf0>, <rdkit.Chem.rdchem.Mol object at 0x7f5838f44ac0>, <rdkit.Chem.rdchem.Mol object at 0x7f5838f44660>]","[0, 0, 0, 0, 0, 1148, 1149, 1150, 1151, 1152, 1153, 1154, 1, 1155, 1156, 1157, 1158]"
PCDTBT-C12,SM3,-5.23,-3.26,-5.95,-3.68,0.5,DCB,_,90.0,PEDOT:PSS,LiF,0.56,0.56,1.09,30.0,"[<rdkit.Chem.rdchem.Mol object at 0x7f5838f457e0>, <rdkit.Chem.rdchem.Mol object at 0x7f5838f44c10>, <rdkit.Chem.rdchem.Mol object at 0x7f5838f45b60>, <rdkit.Chem.rdchem.Mol object at 0x7f5838f45310>, <rdkit.Chem.rdchem.Mol object at 0x7f5838f44120>, <rdkit.Chem.rdchem.Mol object at 0x7f5838f44ba0>, <rdkit.Chem.rdchem.Mol object at 0x7f5838f44a50>]","[<rdkit.Chem.rdchem.Mol object at 0x7f5838f45540>, <rdkit.Chem.rdchem.Mol object at 0x7f5838f44f20>, <rdkit.Chem.rdchem.Mol object at 0x7f5838f451c0>, <rdkit.Chem.rdchem.Mol object at 0x7f5838f44200>, <rdkit.Chem.rdchem.Mol object at 0x7f5838f45690>, <rdkit.Chem.rdchem.Mol object at 0x7f5838f45930>]","[<rdkit.Chem.rdchem.Mol object at 0x7f5838f457e0>, <rdkit.Chem.rdchem.Mol object at 0x7f5838f44c10>, <rdkit.Chem.rdchem.Mol object at 0x7f5838f45b60>, <rdkit.Chem.rdchem.Mol object at 0x7f5838f45310>, <rdkit.Chem.rdchem.Mol object at 0x7f5838f44120>, <rdkit.Chem.rdchem.Mol object at 0x7f5838f44ba0>, <rdkit.Chem.rdchem.Mol object at 0x7f5838f44a50>, '.', <rdkit.Chem.rdchem.Mol object at 0x7f5838f45540>, <rdkit.Chem.rdchem.Mol object at 0x7f5838f44f20>, <rdkit.Chem.rdchem.Mol object at 0x7f5838f451c0>, <rdkit.Chem.rdchem.Mol object at 0x7f5838f44200>, <rdkit.Chem.rdchem.Mol object at 0x7f5838f45690>, <rdkit.Chem.rdchem.Mol object at 0x7f5838f45930>]","[0, 0, 0, 1159, 1160, 1161, 1162, 1163, 1164, 1165, 1, 1166, 1167, 1168, 1169, 1170, 1171]"
PCDTBT-C12,SM4,-5.23,-3.26,-5.8,-3.65,0.5,DCB,_,90.0,PEDOT:PSS,LiF,0.13,0.13,1.24,28.0,"[<rdkit.Chem.rdchem.Mol object at 0x7f5838f45af0>, <rdkit.Chem.rdchem.Mol object at 0x7f5838f444a0>, <rdkit.Chem.rdchem.Mol object at 0x7f5838f45ee0>, <rdkit.Chem.rdchem.Mol object at 0x7f5838f45bd0>, <rdkit.Chem.rdchem.Mol object at 0x7f5838f452a0>, <rdkit.Chem.rdchem.Mol object at 0x7f5838f45000>, <rdkit.Chem.rdchem.Mol object at 0x7f5838f45c40>]","[<rdkit.Chem.rdchem.Mol object at 0x7f5838f45700>, <rdkit.Chem.rdchem.Mol object at 0x7f5838f45850>, <rdkit.Chem.rdchem.Mol object at 0x7f5838f45cb0>, <rdkit.Chem.rdchem.Mol object at 0x7f5838f45f50>, <rdkit.Chem.rdchem.Mol object at 0x7f5838f455b0>, <rdkit.Chem.rdchem.Mol object at 0x7f5838f460a0>]","[<rdkit.Chem.rdchem.Mol object at 0x7f5838f45af0>, <rdkit.Chem.rdchem.Mol object at 0x7f5838f444a0>, <rdkit.Chem.rdchem.Mol object at 0x7f5838f45ee0>, <rdkit.Chem.rdchem.Mol object at 0x7f5838f45bd0>, <rdkit.Chem.rdchem.Mol object at 0x7f5838f452a0>, <rdkit.Chem.rdchem.Mol object at 0x7f5838f45000>, <rdkit.Chem.rdchem.Mol object at 0x7f5838f45c40>, '.', <rdkit.Chem.rdchem.Mol object at 0x7f5838f45700>, <rdkit.Chem.rdchem.Mol object at 0x7f5838f45850>, <rdkit.Chem.rdchem.Mol object at 0x7f5838f45cb0>, <rdkit.Chem.rdchem.Mol object at 0x7f5838f45f50>, <rdkit.Chem.rdchem.Mol object at 0x7f5838f455b0>, <rdkit.Chem.rdchem.Mol object at 0x7f5838f460a0>]","[0, 0, 0, 1172, 1173, 1174, 1175, 1176, 1177, 1178, 1, 1179, 1180, 1181, 1182, 1183, 1184]"
PTB7-Th,SFBRCN,-5.204782608695651,-3.5391891891891896,-5.93,-3.86,0.833,CB,DIO,25.0,MoOx,ZnO,9.9,9.93,0.9,64.0,"[<rdkit.Chem.rdchem.Mol object at 0x7f5838f46420>, <rdkit.Chem.rdchem.Mol object at 0x7f5838f46030>, <rdkit.Chem.rdchem.Mol object at 0x7f5838f45a10>, <rdkit.Chem.rdchem.Mol object at 0x7f5838f45d20>, <rdkit.Chem.rdchem.Mol object at 0x7f5838f46110>, <rdkit.Chem.rdchem.Mol object at 0x7f5838f45d90>, <rdkit.Chem.rdchem.Mol object at 0x7f5838f46b20>]","[<rdkit.Chem.rdchem.Mol object at 0x7f5838f466c0>, <rdkit.Chem.rdchem.Mol object at 0x7f5838f467a0>, <rdkit.Chem.rdchem.Mol object at 0x7f5838f45380>, <rdkit.Chem.rdchem.Mol object at 0x7f5838f46c00>, <rdkit.Chem.rdchem.Mol object at 0x7f5838f44f90>]","[<rdkit.Chem.rdchem.Mol object at 0x7f5838f46420>, <rdkit.Chem.rdchem.Mol object at 0x7f5838f46030>, <rdkit.Chem.rdchem.Mol object at 0x7f5838f45a10>, <rdkit.Chem.rdchem.Mol object at 0x7f5838f45d20>, <rdkit.Chem.rdchem.Mol object at 0x7f5838f46110>, <rdkit.Chem.rdchem.Mol object at 0x7f5838f45d90>, <rdkit.Chem.rdchem.Mol object at 0x7f5838f46b20>, '.', <rdkit.Chem.rdchem.Mol object at 0x7f5838f466c0>, <rdkit.Chem.rdchem.Mol object at 0x7f5838f467a0>, <rdkit.Chem.rdchem.Mol object at 0x7f5838f45380>, <rdkit.Chem.rdchem.Mol object at 0x7f5838f46c00>, <rdkit.Chem.rdchem.Mol object at 0x7f5838f44f90>]","[0, 0, 0, 0, 1195, 1196, 1197, 1198, 1199, 1200, 1201, 1, 1202, 1203, 1204, 1205, 1206]"