Donor,Acceptor,HOMO_D_eV,LUMO_D_eV,HOMO_A_eV,LUMO_A_eV,D_A_ratio_m_m,solvent,total_solids_conc_mg_mL,solvent_additive,annealing_temperature,hole_contact_layer,electron_contact_layer,PCE_percent,calc_PCE_percent,Voc_V,FF_percent,Donor_BRICS,Acceptor_BRICS,DA_pair_BRICS,DA_tokenized_BRICS
J52-Cl,ITIC,-5.53,-5.38,-5.57675,-3.918163265306122,0.667,CF,18.0,_,25,PEDOT:PSS,PDINO,11.53,11.52,0.956,70.2,"['CCCCCCCCC(C)CCCCCC', 'CCCCC(C)CC', 'CCCCC(C)CC', 'Clc1ccsc1', 'Cc1cccs1', 'c1ccsc1', 'Fc1cc2nnnc2cc1F', 'Cc1cc2cc3sccc3cc2s1']","['N#CCC#N', 'O=C1CCc2ccccc21', 'C', 'CCCCCC', 'c1ccc(C2(c3ccccc3)c3cc4c(cc3-c3sc5ccsc5c32)C(c2ccccc2)(c2ccccc2)c2c-4sc3ccsc23)cc1']","['CCCCCCCCC(C)CCCCCC', 'CCCCC(C)CC', 'CCCCC(C)CC', 'Clc1ccsc1', 'Cc1cccs1', 'c1ccsc1', 'Fc1cc2nnnc2cc1F', 'Cc1cc2cc3sccc3cc2s1', '.', 'N#CCC#N', 'O=C1CCc2ccccc21', 'C', 'CCCCCC', 'c1ccc(C2(c3ccccc3)c3cc4c(cc3-c3sc5ccsc5c32)C(c2ccccc2)(c2ccccc2)c2c-4sc3ccsc23)cc1']","[0, 0, 0, 16, 3, 3, 160, 5, 6, 18, 8, 1, 9, 10, 11, 12, 14]"
PBDB-T,IDTT2F,-5.297714285714285,-3.4170000000000003,-5.57,-4.03,1.0,o-DCB,8.0,_,25,MoOx,ZnO,8.85,8.85,0.81,59.0,"['CCCCC(C)CC', 'Cc1cccs1', 'c1ccsc1', 'O=C1c2cscc2C(=O)c2cscc21', 'Cc1cc2cc3sccc3cc2s1']","['N#CCC#N', 'O=C1CCc2cc(F)c(F)cc21', 'C', 'CCCCCC', 'c1ccsc1', 'c1ccc(C2(c3ccccc3)c3cc4c(cc3-c3sccc32)C(c2ccccc2)(c2ccccc2)c2ccsc2-4)cc1']","['CCCCC(C)CC', 'Cc1cccs1', 'c1ccsc1', 'O=C1c2cscc2C(=O)c2cscc21', 'Cc1cc2cc3sccc3cc2s1', '.', 'N#CCC#N', 'O=C1CCc2cc(F)c(F)cc21', 'C', 'CCCCCC', 'c1ccsc1', 'c1ccc(C2(c3ccccc3)c3cc4c(cc3-c3sccc32)C(c2ccccc2)(c2ccccc2)c2ccsc2-4)cc1']","[0, 0, 0, 0, 0, 3, 5, 6, 29, 8, 1, 9, 39, 11, 12, 6, 36]"
PBDB-T,IDTOT2F,-5.297714285714285,-3.4170000000000003,-5.54,-3.94,1.0,o-DCB,8.0,_,25,MoOx,ZnO,12.79,12.77,0.85,72.0,"['CCCCC(C)CC', 'Cc1cccs1', 'c1ccsc1', 'O=C1c2cscc2C(=O)c2cscc21', 'Cc1cc2cc3sccc3cc2s1']","['CCCCCC', 'O', 'N#CCC#N', 'O=C1CCc2cc(F)c(F)cc21', 'C', 'CCCCCC', 'c1ccsc1', 'c1ccc(C2(c3ccccc3)c3cc4c(cc3-c3sccc32)C(c2ccccc2)(c2ccccc2)c2ccsc2-4)cc1']","['CCCCC(C)CC', 'Cc1cccs1', 'c1ccsc1', 'O=C1c2cscc2C(=O)c2cscc21', 'Cc1cc2cc3sccc3cc2s1', '.', 'CCCCCC', 'O', 'N#CCC#N', 'O=C1CCc2cc(F)c(F)cc21', 'C', 'CCCCCC', 'c1ccsc1', 'c1ccc(C2(c3ccccc3)c3cc4c(cc3-c3sccc32)C(c2ccccc2)(c2ccccc2)c2ccsc2-4)cc1']","[0, 0, 0, 3, 5, 6, 29, 8, 1, 12, 2, 9, 39, 11, 12, 6, 36]"
PBDB-T,IDTIC,-5.297714285714285,-3.4170000000000003,-5.885,-3.91,1.0,CB,10.0,DIO,25,MoOx,ZnO,6.05,6.03,0.89,61.9,"['CCCCC(C)CC', 'Cc1cccs1', 'c1ccsc1', 'O=C1c2cscc2C(=O)c2cscc21', 'Cc1cc2cc3sccc3cc2s1']","['N#CCC#N', 'O=C1CCc2ccccc21', 'C', 'CCCCCCCCC(CCCCCC)CC1(CCCCCCCCC(C)CCCCCC)c2cc3c(cc2-c2sccc21)C(CC(CCCCCC)CCCCCCCC)(CC(CCCCCC)CCCCCCCC)c1ccsc1-3']","['CCCCC(C)CC', 'Cc1cccs1', 'c1ccsc1', 'O=C1c2cscc2C(=O)c2cscc21', 'Cc1cc2cc3sccc3cc2s1', '.', 'N#CCC#N', 'O=C1CCc2ccccc21', 'C', 'CCCCCCCCC(CCCCCC)CC1(CCCCCCCCC(C)CCCCCC)c2cc3c(cc2-c2sccc21)C(CC(CCCCCC)CCCCCCCC)(CC(CCCCCC)CCCCCCCC)c1ccsc1-3']","[0, 0, 0, 0, 0, 0, 0, 3, 5, 6, 29, 8, 1, 9, 10, 11, 202]"
PBDB-T,ITIC,-5.297714285714285,-3.4170000000000003,-5.57675,-3.918163265306122,1.0,CB,20.0,_,25,PEDOT:PSS,N719:PrC60MAI,9.94,9.94,0.897,65.5,"['CCCCC(C)CC', 'Cc1cccs1', 'c1ccsc1', 'O=C1c2cscc2C(=O)c2cscc21', 'Cc1cc2cc3sccc3cc2s1']","['N#CCC#N', 'O=C1CCc2ccccc21', 'C', 'CCCCCC', 'c1ccc(C2(c3ccccc3)c3cc4c(cc3-c3sc5ccsc5c32)C(c2ccccc2)(c2ccccc2)c2c-4sc3ccsc23)cc1']","['CCCCC(C)CC', 'Cc1cccs1', 'c1ccsc1', 'O=C1c2cscc2C(=O)c2cscc21', 'Cc1cc2cc3sccc3cc2s1', '.', 'N#CCC#N', 'O=C1CCc2ccccc21', 'C', 'CCCCCC', 'c1ccc(C2(c3ccccc3)c3cc4c(cc3-c3sc5ccsc5c32)C(c2ccccc2)(c2ccccc2)c2c-4sc3ccsc23)cc1']","[0, 0, 0, 0, 0, 0, 3, 5, 6, 29, 8, 1, 9, 10, 11, 12, 14]"
PBDB-T,ITCT,-5.297714285714285,-3.4170000000000003,-5.596666666666667,-3.796666666666667,1.0,CB,20.0,_,25,PEDOT:PSS,N719:PrC60MAI,10.99,10.99,0.85,72.3,"['CCCCC(C)CC', 'Cc1cccs1', 'c1ccsc1', 'O=C1c2cscc2C(=O)c2cscc21', 'Cc1cc2cc3sccc3cc2s1']","['N#CCC#N', 'O=C1CCc2cscc21', 'C', 'CCCCCC', 'c1ccc(C2(c3ccccc3)c3cc4c(cc3-c3sc5ccsc5c32)C(c2ccccc2)(c2ccccc2)c2c-4sc3ccsc23)cc1']","['CCCCC(C)CC', 'Cc1cccs1', 'c1ccsc1', 'O=C1c2cscc2C(=O)c2cscc21', 'Cc1cc2cc3sccc3cc2s1', '.', 'N#CCC#N', 'O=C1CCc2cscc21', 'C', 'CCCCCC', 'c1ccc(C2(c3ccccc3)c3cc4c(cc3-c3sc5ccsc5c32)C(c2ccccc2)(c2ccccc2)c2c-4sc3ccsc23)cc1']","[0, 0, 0, 0, 0, 0, 3, 5, 6, 29, 8, 1, 9, 40, 11, 12, 14]"
P3HT,IDT-RCN,-5.057777777777777,-2.989444444444445,-5.62,-3.75,1.25,CB,14.4,CN,25,PEDOT:PSS,Ca,3.42,3.44,0.69,63.0,"['CCCCCC', 'Cc1cccs1', 'Cc1cccs1', 'c1ccsc1']","['CC', 'CCCCCC', 'N#CC(C#N)=c1nc(=O)/c(=C/c2cccc3nsnc23)s1', 'c1ccc(C2(c3ccccc3)c3cc4c(cc3-c3sccc32)C(c2ccccc2)(c2ccccc2)c2ccsc2-4)cc1']","['CCCCCC', 'Cc1cccs1', 'Cc1cccs1', 'c1ccsc1', '.', 'CC', 'CCCCCC', 'N#CC(C#N)=c1nc(=O)/c(=C/c2cccc3nsnc23)s1', 'c1ccc(C2(c3ccccc3)c3cc4c(cc3-c3sccc32)C(c2ccccc2)(c2ccccc2)c2ccsc2-4)cc1']","[0, 0, 0, 0, 0, 0, 0, 0, 12, 5, 5, 6, 1, 21, 12, 82, 36]"
P3HT,IDT-CA,-5.057777777777777,-2.989444444444445,-5.59,-3.64,1.25,CB,14.4,CN,25,PEDOT:PSS,Ca,4.19,4.18,0.84,64.0,"['CCCCCC', 'Cc1cccs1', 'Cc1cccs1', 'c1ccsc1']","['O', 'CC', 'N#CCC=O', 'C', 'CCCCCC', 'c1ccc2nsnc2c1', 'c1ccc(C2(c3ccccc3)c3cc4c(cc3-c3sccc32)C(c2ccccc2)(c2ccccc2)c2ccsc2-4)cc1']","['CCCCCC', 'Cc1cccs1', 'Cc1cccs1', 'c1ccsc1', '.', 'O', 'CC', 'N#CCC=O', 'C', 'CCCCCC', 'c1ccc2nsnc2c1', 'c1ccc(C2(c3ccccc3)c3cc4c(cc3-c3sccc32)C(c2ccccc2)(c2ccccc2)c2ccsc2-4)cc1']","[0, 0, 0, 0, 0, 12, 5, 5, 6, 1, 2, 21, 91, 11, 12, 34, 36]"
PBDB-T,IDTO-T-4F,-5.297714285714285,-3.4170000000000003,-5.49,-3.88,0.833,CF,13.2,DIO,25,PEDOT:PSS,PDINO,12.62,12.64,0.864,72.7,"['CCCCC(C)CC', 'Cc1cccs1', 'c1ccsc1', 'O=C1c2cscc2C(=O)c2cscc21', 'Cc1cc2cc3sccc3cc2s1']","['CCCCCCCC', 'O', 'N#CCC#N', 'O=C1CCc2cc(F)c(F)cc21', 'C', 'CCCCCC', 'c1ccsc1', 'c1ccc(C2(c3ccccc3)c3cc4c(cc3-c3sccc32)C(c2ccccc2)(c2ccccc2)c2ccsc2-4)cc1']","['CCCCC(C)CC', 'Cc1cccs1', 'c1ccsc1', 'O=C1c2cscc2C(=O)c2cscc21', 'Cc1cc2cc3sccc3cc2s1', '.', 'CCCCCCCC', 'O', 'N#CCC#N', 'O=C1CCc2cc(F)c(F)cc21', 'C', 'CCCCCC', 'c1ccsc1', 'c1ccc(C2(c3ccccc3)c3cc4c(cc3-c3sccc32)C(c2ccccc2)(c2ccccc2)c2ccsc2-4)cc1']","[0, 0, 0, 3, 5, 6, 29, 8, 1, 20, 2, 9, 39, 11, 12, 6, 36]"
PBDB-T,IDTO-Se-4F,-5.297714285714285,-3.4170000000000003,-5.48,-3.9,0.909,CB,20.0,DIO,25,PEDOT:PSS,PDINO,10.67,10.67,0.831,69.2,"['CCCCC(C)CC', 'Cc1cccs1', 'c1ccsc1', 'O=C1c2cscc2C(=O)c2cscc21', 'Cc1cc2cc3sccc3cc2s1']","['CCCCCCCC', 'O', 'N#CCC#N', 'O=C1CCc2cc(F)c(F)cc21', 'CCCCCC', 'Cc1ccc(-c2cc3c(s2)-c2cc4c(cc2C3(c2ccccc2)c2ccccc2)-c2sc(-c3ccc(C)[se]3)cc2C4(c2ccccc2)c2ccccc2)[se]1']","['CCCCC(C)CC', 'Cc1cccs1', 'c1ccsc1', 'O=C1c2cscc2C(=O)c2cscc21', 'Cc1cc2cc3sccc3cc2s1', '.', 'CCCCCCCC', 'O', 'N#CCC#N', 'O=C1CCc2cc(F)c(F)cc21', 'CCCCCC', 'Cc1ccc(-c2cc3c(s2)-c2cc4c(cc2C3(c2ccccc2)c2ccccc2)-c2sc(-c3ccc(C)[se]3)cc2C4(c2ccccc2)c2ccccc2)[se]1']","[0, 0, 0, 0, 0, 3, 5, 6, 29, 8, 1, 20, 2, 9, 39, 12, 212]"
PBDB-T,IDTO-TT-4F,-5.297714285714285,-3.4170000000000003,-5.39,-3.89,0.909,CF,12.0,DIO,25,PEDOT:PSS,PDINO,10.21,10.22,0.856,69.4,"['CCCCC(C)CC', 'Cc1cccs1', 'c1ccsc1', 'O=C1c2cscc2C(=O)c2cscc21', 'Cc1cc2cc3sccc3cc2s1']","['CCCCCCCC', 'O', 'N#CCC#N', 'O=C1CCc2cc(F)c(F)cc21', 'C', 'CCCCCC', 'c1cc2sccc2s1', 'c1ccc(C2(c3ccccc3)c3cc4c(cc3-c3sccc32)C(c2ccccc2)(c2ccccc2)c2ccsc2-4)cc1']","['CCCCC(C)CC', 'Cc1cccs1', 'c1ccsc1', 'O=C1c2cscc2C(=O)c2cscc21', 'Cc1cc2cc3sccc3cc2s1', '.', 'CCCCCCCC', 'O', 'N#CCC#N', 'O=C1CCc2cc(F)c(F)cc21', 'C', 'CCCCCC', 'c1cc2sccc2s1', 'c1ccc(C2(c3ccccc3)c3cc4c(cc3-c3sccc32)C(c2ccccc2)(c2ccccc2)c2ccsc2-4)cc1']","[0, 0, 0, 3, 5, 6, 29, 8, 1, 20, 2, 9, 39, 11, 12, 7, 36]"
PBDB-T,IDT2Se-4F,-5.297714285714285,-3.4170000000000003,-5.51,-4.0,1.0,CB,20.0,_,80,PEDOT:PSS,PDINO,11.03,11.03,0.79,65.4,"['CCCCC(C)CC', 'Cc1cccs1', 'c1ccsc1', 'O=C1c2cscc2C(=O)c2cscc21', 'Cc1cc2cc3sccc3cc2s1']","['N#CCC#N', 'O=C1CCc2cc(F)c(F)cc21', 'CCCCCC', 'Cc1ccc(-c2cc3c(s2)-c2cc4c(cc2C3(c2ccccc2)c2ccccc2)-c2sc(-c3ccc(C)[se]3)cc2C4(c2ccccc2)c2ccccc2)[se]1']","['CCCCC(C)CC', 'Cc1cccs1', 'c1ccsc1', 'O=C1c2cscc2C(=O)c2cscc21', 'Cc1cc2cc3sccc3cc2s1', '.', 'N#CCC#N', 'O=C1CCc2cc(F)c(F)cc21', 'CCCCCC', 'Cc1ccc(-c2cc3c(s2)-c2cc4c(cc2C3(c2ccccc2)c2ccccc2)-c2sc(-c3ccc(C)[se]3)cc2C4(c2ccccc2)c2ccccc2)[se]1']","[0, 0, 0, 0, 0, 0, 0, 3, 5, 6, 29, 8, 1, 9, 39, 12, 212]"
PBDTS-Se-TAZ,ITIC,-5.29,-3.49,-5.57675,-3.918163265306122,1.0,CF,16.0,DIO,25,MoOx,ZnO,12.31,12.31,0.84,75.1,"['CCCCCCCCC(C)CCCCCC', 'CCCCCCCC', 'Cc1cc2c(-c3ccc(S)[se]3)c3sccc3c(-c3ccc(S)[se]3)c2s1', 'Cc1cccs1', 'c1ccsc1', 'Fc1cc2nnnc2cc1F']","['N#CCC#N', 'O=C1CCc2ccccc21', 'C', 'CCCCCC', 'c1ccc(C2(c3ccccc3)c3cc4c(cc3-c3sc5ccsc5c32)C(c2ccccc2)(c2ccccc2)c2c-4sc3ccsc23)cc1']","['CCCCCCCCC(C)CCCCCC', 'CCCCCCCC', 'Cc1cc2c(-c3ccc(S)[se]3)c3sccc3c(-c3ccc(S)[se]3)c2s1', 'Cc1cccs1', 'c1ccsc1', 'Fc1cc2nnnc2cc1F', '.', 'N#CCC#N', 'O=C1CCc2ccccc21', 'C', 'CCCCCC', 'c1ccc(C2(c3ccccc3)c3cc4c(cc3-c3sc5ccsc5c32)C(c2ccccc2)(c2ccccc2)c2c-4sc3ccsc23)cc1']","[0, 0, 0, 0, 0, 16, 20, 214, 5, 6, 18, 1, 9, 10, 11, 12, 14]"
PBDB-TF,IT-4F,-5.497142857142857,-3.6428571428571423,-5.66875,-4.060416666666667,1.0,CB,20.0,DIO,100,PEDOT:PSS,PFN-Br,13.7,13.65,0.87,77.0,"['CCCCC(C)CC', 'Cc1cccs1', 'Fc1ccsc1', 'O=C1c2cscc2C(=O)c2cscc21', 'c1ccsc1', 'Cc1cc2cc3sccc3cc2s1']","['N#CCC#N', 'O=C1CCc2cc(F)c(F)cc21', 'C', 'CCCCCC', 'c1ccc(C2(c3ccccc3)c3cc4c(cc3-c3sc5ccsc5c32)C(c2ccccc2)(c2ccccc2)c2c-4sc3ccsc23)cc1']","['CCCCC(C)CC', 'Cc1cccs1', 'Fc1ccsc1', 'O=C1c2cscc2C(=O)c2cscc21', 'c1ccsc1', 'Cc1cc2cc3sccc3cc2s1', '.', 'N#CCC#N', 'O=C1CCc2cc(F)c(F)cc21', 'C', 'CCCCCC', 'c1ccc(C2(c3ccccc3)c3cc4c(cc3-c3sc5ccsc5c32)C(c2ccccc2)(c2ccccc2)c2c-4sc3ccsc23)cc1']","[0, 0, 0, 0, 0, 3, 5, 23, 29, 6, 8, 1, 9, 39, 11, 12, 14]"
PBDB-TF,HF-PCIC,-5.497142857142857,-3.6428571428571423,-5.53,-3.83,0.833,CB,20.0,CN,110,MoOx,ZnO,10.97,10.67,0.92,72.42,"['CCCCC(C)CC', 'Cc1cccs1', 'Fc1ccsc1', 'O=C1c2cscc2C(=O)c2cscc21', 'c1ccsc1', 'Cc1cc2cc3sccc3cc2s1']","['N#CCC#N', 'O=C1CCc2cc(F)c(F)cc21', 'C', 'CCCCC(CC)CC1(CCCCC(C)CC)c2ccsc2-c2sccc21', 'CCCCC(CC)CC1(CC(CC)CCCC)c2ccsc2-c2sccc21', 'Fc1ccc(F)cc1']","['CCCCC(C)CC', 'Cc1cccs1', 'Fc1ccsc1', 'O=C1c2cscc2C(=O)c2cscc21', 'c1ccsc1', 'Cc1cc2cc3sccc3cc2s1', '.', 'N#CCC#N', 'O=C1CCc2cc(F)c(F)cc21', 'C', 'CCCCC(CC)CC1(CCCCC(C)CC)c2ccsc2-c2sccc21', 'CCCCC(CC)CC1(CC(CC)CCCC)c2ccsc2-c2sccc21', 'Fc1ccc(F)cc1']","[0, 0, 0, 0, 3, 5, 23, 29, 6, 8, 1, 9, 39, 11, 200, 143, 201]"
PBDB-TF,HFO-PCIC,-5.497142857142857,-3.6428571428571423,-5.5,-3.81,0.833,CB,20.0,CN,110,MoOx,ZnO,8.36,8.33,0.93,70.99,"['CCCCC(C)CC', 'Cc1cccs1', 'Fc1ccsc1', 'O=C1c2cscc2C(=O)c2cscc21', 'c1ccsc1', 'Cc1cc2cc3sccc3cc2s1']","['CO', 'N#CCC#N', 'O=C1CCc2cc(F)c(F)cc21', 'C', 'CCCCC(CC)CC1(CCCCC(C)CC)c2ccsc2-c2sccc21', 'CCCCC(CC)CC1(CC(CC)CCCC)c2ccsc2-c2sccc21', 'Fc1ccc(F)cc1']","['CCCCC(C)CC', 'Cc1cccs1', 'Fc1ccsc1', 'O=C1c2cscc2C(=O)c2cscc21', 'c1ccsc1', 'Cc1cc2cc3sccc3cc2s1', '.', 'CO', 'N#CCC#N', 'O=C1CCc2cc(F)c(F)cc21', 'C', 'CCCCC(CC)CC1(CCCCC(C)CC)c2ccsc2-c2sccc21', 'CCCCC(CC)CC1(CC(CC)CCCC)c2ccsc2-c2sccc21', 'Fc1ccc(F)cc1']","[0, 0, 0, 3, 5, 23, 29, 6, 8, 1, 60, 9, 39, 11, 200, 143, 201]"
PBDB-TF,OF-PCIC,-5.497142857142857,-3.6428571428571423,-5.66,-3.86,0.833,CB,20.0,CN,110,MoOx,ZnO,9.09,9.19,0.91,73.37,"['CCCCC(C)CC', 'Cc1cccs1', 'Fc1ccsc1', 'O=C1c2cscc2C(=O)c2cscc21', 'c1ccsc1', 'Cc1cc2cc3sccc3cc2s1']","['N#CCC#N', 'O=C1CCc2cc(F)c(F)cc21', 'C', 'CCCCC(CC)CC1(CCCCC(C)CC)c2ccsc2-c2sccc21', 'CCCCC(CC)CC1(CC(CC)CCCC)c2ccsc2-c2sccc21', 'Fc1cc(F)c(F)cc1F']","['CCCCC(C)CC', 'Cc1cccs1', 'Fc1ccsc1', 'O=C1c2cscc2C(=O)c2cscc21', 'c1ccsc1', 'Cc1cc2cc3sccc3cc2s1', '.', 'N#CCC#N', 'O=C1CCc2cc(F)c(F)cc21', 'C', 'CCCCC(CC)CC1(CCCCC(C)CC)c2ccsc2-c2sccc21', 'CCCCC(CC)CC1(CC(CC)CCCC)c2ccsc2-c2sccc21', 'Fc1cc(F)c(F)cc1F']","[0, 0, 0, 0, 3, 5, 23, 29, 6, 8, 1, 9, 39, 11, 200, 143, 216]"
PBDB-T,IF-TN,-5.297714285714285,-3.4170000000000003,-5.8,-3.93,1.0,CB,10.0,CN,80,PEDOT:PSS,PNDIT-F3N-Br,2.89,2.89,1.006,40.95,"['CCCCC(C)CC', 'Cc1cccs1', 'c1ccsc1', 'O=C1c2cscc2C(=O)c2cscc21', 'Cc1cc2cc3sccc3cc2s1']","['N#CCC#N', 'O=C1CCc2cc3ccccc3cc21', 'C', 'CCCCC(C)CC', 'c1ccsc1', 'CCCCCCC1(CCCCCC)c2ccccc2-c2cc3c(cc21)-c1ccccc1C3(CCCCCC)CCCCCC']","['CCCCC(C)CC', 'Cc1cccs1', 'c1ccsc1', 'O=C1c2cscc2C(=O)c2cscc21', 'Cc1cc2cc3sccc3cc2s1', '.', 'N#CCC#N', 'O=C1CCc2cc3ccccc3cc21', 'C', 'CCCCC(C)CC', 'c1ccsc1', 'CCCCCCC1(CCCCCC)c2ccccc2-c2cc3c(cc21)-c1ccccc1C3(CCCCCC)CCCCCC']","[0, 0, 0, 0, 0, 3, 5, 6, 29, 8, 1, 9, 37, 11, 3, 6, 217]"
PBDB-T,IDT-TN,-5.297714285714285,-3.4170000000000003,-5.42,-4.03,1.0,CB,10.0,CN,80,PEDOT:PSS,PNDIT-F3N-Br,5.77,5.77,0.967,45.17,"['CCCCC(C)CC', 'Cc1cccs1', 'c1ccsc1', 'O=C1c2cscc2C(=O)c2cscc21', 'Cc1cc2cc3sccc3cc2s1']","['N#CCC#N', 'O=C1CCc2cc3ccccc3cc21', 'C', 'CCCCC(C)CC', 'c1ccsc1', 'CCCCCCC1(CCCCCC)c2cc3c(cc2-c2sccc21)C(CCCCCC)(CCCCCC)c1ccsc1-3']","['CCCCC(C)CC', 'Cc1cccs1', 'c1ccsc1', 'O=C1c2cscc2C(=O)c2cscc21', 'Cc1cc2cc3sccc3cc2s1', '.', 'N#CCC#N', 'O=C1CCc2cc3ccccc3cc21', 'C', 'CCCCC(C)CC', 'c1ccsc1', 'CCCCCCC1(CCCCCC)c2cc3c(cc2-c2sccc21)C(CCCCCC)(CCCCCC)c1ccsc1-3']","[0, 0, 0, 0, 0, 3, 5, 6, 29, 8, 1, 9, 37, 11, 3, 6, 28]"
PBDB-T,ITIC-Cl4,-5.297714285714285,-3.4170000000000003,-5.5,-3.9,1.0,o-DCB,15.0,CN,25,MoOx,ZnO,9.6,9.55,0.74,60.0,"['CCCCC(C)CC', 'Cc1cccs1', 'c1ccsc1', 'O=C1c2cscc2C(=O)c2cscc21', 'Cc1cc2cc3sccc3cc2s1']","['N#CCC#N', 'O=C1CCc2cc(Cl)c(Cl)cc21', 'C', 'CCCCCC', 'c1ccc(C2(c3ccccc3)c3cc4c(cc3-c3sc5ccsc5c32)C(c2ccccc2)(c2ccccc2)c2c-4sc3ccsc23)cc1']","['CCCCC(C)CC', 'Cc1cccs1', 'c1ccsc1', 'O=C1c2cscc2C(=O)c2cscc21', 'Cc1cc2cc3sccc3cc2s1', '.', 'N#CCC#N', 'O=C1CCc2cc(Cl)c(Cl)cc21', 'C', 'CCCCCC', 'c1ccc(C2(c3ccccc3)c3cc4c(cc3-c3sc5ccsc5c32)C(c2ccccc2)(c2ccccc2)c2c-4sc3ccsc23)cc1']","[0, 0, 0, 0, 0, 0, 3, 5, 6, 29, 8, 1, 9, 38, 11, 12, 14]"
PBDTS-TzBI,ITIC,-5.39,-3.52,-5.57675,-3.918163265306122,1.0,CB,20.0,_,130,PEDOT:PSS,PFN-Br,9.04,8.88,0.94,56.2,"['CCCCC(C)CC', 'CCCCCCCC', 'CCCCCCCCC', 'S', 'c1ccsc1', 'Cc1cccs1', 'O=C1NC(=O)c2cc3nnnc3cc21', 'Cc1cc2cc3sccc3cc2s1']","['N#CCC#N', 'O=C1CCc2ccccc21', 'C', 'CCCCCC', 'c1ccc(C2(c3ccccc3)c3cc4c(cc3-c3sc5ccsc5c32)C(c2ccccc2)(c2ccccc2)c2c-4sc3ccsc23)cc1']","['CCCCC(C)CC', 'CCCCCCCC', 'CCCCCCCCC', 'S', 'c1ccsc1', 'Cc1cccs1', 'O=C1NC(=O)c2cc3nnnc3cc21', 'Cc1cc2cc3sccc3cc2s1', '.', 'N#CCC#N', 'O=C1CCc2ccccc21', 'C', 'CCCCCC', 'c1ccc(C2(c3ccccc3)c3cc4c(cc3-c3sc5ccsc5c32)C(c2ccccc2)(c2ccccc2)c2c-4sc3ccsc23)cc1']","[0, 0, 0, 3, 20, 77, 24, 6, 5, 116, 8, 1, 9, 10, 11, 12, 14]"
PBDTS-TzBI,ITIC-Th,-5.39,-3.52,-5.675000000000001,-3.90625,1.0,CB,20.0,_,130,PEDOT:PSS,PFN-Br,9.67,9.54,0.91,60.44,"['CCCCC(C)CC', 'CCCCCCCC', 'CCCCCCCCC', 'S', 'c1ccsc1', 'Cc1cccs1', 'O=C1NC(=O)c2cc3nnnc3cc21', 'Cc1cc2cc3sccc3cc2s1']","['N#CCC#N', 'O=C1CCc2ccccc21', 'C', 'CCCCCC', 'c1csc(C2(c3cccs3)c3cc4c(cc3-c3sc5ccsc5c32)C(c2cccs2)(c2cccs2)c2c-4sc3ccsc23)c1']","['CCCCC(C)CC', 'CCCCCCCC', 'CCCCCCCCC', 'S', 'c1ccsc1', 'Cc1cccs1', 'O=C1NC(=O)c2cc3nnnc3cc21', 'Cc1cc2cc3sccc3cc2s1', '.', 'N#CCC#N', 'O=C1CCc2ccccc21', 'C', 'CCCCCC', 'c1csc(C2(c3cccs3)c3cc4c(cc3-c3sc5ccsc5c32)C(c2cccs2)(c2cccs2)c2c-4sc3ccsc23)c1']","[0, 0, 0, 3, 20, 77, 24, 6, 5, 116, 8, 1, 9, 10, 11, 12, 59]"
PBDB-T,NFBDT-Me,-5.297714285714285,-3.4170000000000003,-5.4,-3.78,1.667,CF,9.6,_,25,PEDOT:PSS,PDIN,11.0,11.01,0.909,70.0,"['CCCCC(C)CC', 'Cc1cccs1', 'c1ccsc1', 'O=C1c2cscc2C(=O)c2cscc21', 'Cc1cc2cc3sccc3cc2s1']","['N#CCC#N', 'Cc1ccc2c(c1)C(=O)CC2', 'C', 'CCCCCC', 'c1ccc(C2(c3ccccc3)c3ccsc3-c3sc4cc5c6c(sc5cc4c32)-c2sccc2C6(c2ccccc2)c2ccccc2)cc1']","['CCCCC(C)CC', 'Cc1cccs1', 'c1ccsc1', 'O=C1c2cscc2C(=O)c2cscc21', 'Cc1cc2cc3sccc3cc2s1', '.', 'N#CCC#N', 'Cc1ccc2c(c1)C(=O)CC2', 'C', 'CCCCCC', 'c1ccc(C2(c3ccccc3)c3ccsc3-c3sc4cc5c6c(sc5cc4c32)-c2sccc2C6(c2ccccc2)c2ccccc2)cc1']","[0, 0, 0, 0, 0, 0, 3, 5, 6, 29, 8, 1, 9, 199, 11, 12, 27]"
PBDB-T,NFBDT,-5.297714285714285,-3.4170000000000003,-5.400000000000001,-3.83,1.25,CF,9.0,_,25,PEDOT:PSS,PDIN,10.42,10.46,0.872,67.2,"['CCCCC(C)CC', 'Cc1cccs1', 'c1ccsc1', 'O=C1c2cscc2C(=O)c2cscc21', 'Cc1cc2cc3sccc3cc2s1']","['N#CCC#N', 'O=C1CCc2ccccc21', 'C', 'CCCCCC', 'c1ccc(C2(c3ccccc3)c3ccsc3-c3sc4cc5c6c(sc5cc4c32)-c2sccc2C6(c2ccccc2)c2ccccc2)cc1']","['CCCCC(C)CC', 'Cc1cccs1', 'c1ccsc1', 'O=C1c2cscc2C(=O)c2cscc21', 'Cc1cc2cc3sccc3cc2s1', '.', 'N#CCC#N', 'O=C1CCc2ccccc21', 'C', 'CCCCCC', 'c1ccc(C2(c3ccccc3)c3ccsc3-c3sc4cc5c6c(sc5cc4c32)-c2sccc2C6(c2ccccc2)c2ccccc2)cc1']","[0, 0, 0, 0, 0, 0, 3, 5, 6, 29, 8, 1, 9, 10, 11, 12, 27]"
PBDB-T,IT-DM,-5.297714285714285,-3.4170000000000003,-5.515,-3.855,0.75,CB,20.0,_,160,PEDOT:PSS,PFN-Br,10.41,10.41,0.95,68.7,"['CCCCC(C)CC', 'Cc1cccs1', 'c1ccsc1', 'O=C1c2cscc2C(=O)c2cscc21', 'Cc1cc2cc3sccc3cc2s1']","['N#CCC#N', 'Cc1cc2c(cc1C)C(=O)CC2', 'C', 'CCCCCC', 'c1ccc(C2(c3ccccc3)c3cc4c(cc3-c3sc5ccsc5c32)C(c2ccccc2)(c2ccccc2)c2c-4sc3ccsc23)cc1']","['CCCCC(C)CC', 'Cc1cccs1', 'c1ccsc1', 'O=C1c2cscc2C(=O)c2cscc21', 'Cc1cc2cc3sccc3cc2s1', '.', 'N#CCC#N', 'Cc1cc2c(cc1C)C(=O)CC2', 'C', 'CCCCCC', 'c1ccc(C2(c3ccccc3)c3cc4c(cc3-c3sc5ccsc5c32)C(c2ccccc2)(c2ccccc2)c2c-4sc3ccsc23)cc1']","[0, 0, 0, 0, 0, 0, 3, 5, 6, 29, 8, 1, 9, 153, 11, 12, 14]"
PBDB-T,SN6IC,-5.297714285714285,-3.4170000000000003,-5.38,-3.93,1.0,CB,20.0,DIO,25,PEDOT:PSS,C60-bissalt,9.6,9.58,0.88,66.0,"['CCCCC(C)CC', 'Cc1cccs1', 'c1ccsc1', 'O=C1c2cscc2C(=O)c2cscc21', 'Cc1cc2cc3sccc3cc2s1']","['N#CCC#N', 'O=C1CCc2ccccc21', 'CCCCCCCCCCCCC', 'C', 'c1cc2nc3c(sc4c5nc6ccsc6c5sc34)c2s1']","['CCCCC(C)CC', 'Cc1cccs1', 'c1ccsc1', 'O=C1c2cscc2C(=O)c2cscc21', 'Cc1cc2cc3sccc3cc2s1', '.', 'N#CCC#N', 'O=C1CCc2ccccc21', 'CCCCCCCCCCCCC', 'C', 'c1cc2nc3c(sc4c5nc6ccsc6c5sc34)c2s1']","[0, 0, 0, 0, 0, 0, 3, 5, 6, 29, 8, 1, 9, 10, 218, 11, 219]"
PBDB-T,SN6IC-4F,-5.297714285714285,-3.4170000000000003,-5.52,-4.11,1.0,CB,20.0,DIO,25,PEDOT:PSS,C60-bissalt,13.2,13.21,0.78,73.0,"['CCCCC(C)CC', 'Cc1cccs1', 'c1ccsc1', 'O=C1c2cscc2C(=O)c2cscc21', 'Cc1cc2cc3sccc3cc2s1']","['N#CCC#N', 'O=C1CCc2cc(F)c(F)cc21', 'CCCCCCCCCCCCC', 'C', 'c1cc2nc3c(sc4c5nc6ccsc6c5sc34)c2s1']","['CCCCC(C)CC', 'Cc1cccs1', 'c1ccsc1', 'O=C1c2cscc2C(=O)c2cscc21', 'Cc1cc2cc3sccc3cc2s1', '.', 'N#CCC#N', 'O=C1CCc2cc(F)c(F)cc21', 'CCCCCCCCCCCCC', 'C', 'c1cc2nc3c(sc4c5nc6ccsc6c5sc34)c2s1']","[0, 0, 0, 0, 0, 0, 3, 5, 6, 29, 8, 1, 9, 39, 218, 11, 219]"
PTB7-Th,IDTT-T,-5.213181818181817,-3.541944444444445,-5.51,-3.51,0.5,CB,25.0,_,25,MoOx,ZnO,9.1,9.08,1.015,57.0,"['O', 'CCCCC(C)CC', 'C=O', 'CCCCC(C)CC', 'Cc1scc2scc(F)c12', 'c1ccsc1', 'Cc1cc2cc3sccc3cc2s1']","['CC', 'C', 'CCCCCC', 'O=C1CC(=O)NC(=S)N1', 'c1ccc(C2(c3ccccc3)c3cc4c(cc3-c3sc5ccsc5c32)C(c2ccccc2)(c2ccccc2)c2c-4sc3ccsc23)cc1']","['O', 'CCCCC(C)CC', 'C=O', 'CCCCC(C)CC', 'Cc1scc2scc(F)c12', 'c1ccsc1', 'Cc1cc2cc3sccc3cc2s1', '.', 'CC', 'C', 'CCCCCC', 'O=C1CC(=O)NC(=S)N1', 'c1ccc(C2(c3ccccc3)c3cc4c(cc3-c3sc5ccsc5c32)C(c2ccccc2)(c2ccccc2)c2c-4sc3ccsc23)cc1']","[0, 0, 0, 0, 2, 3, 4, 3, 33, 6, 8, 1, 21, 11, 12, 122, 14]"
PBDB-T,IDT-IC,-5.297714285714285,-3.4170000000000003,-5.693333333333334,-3.866666666666666,1.0,o-DCB,8.0,_,25,MoOx,ZnO,4.69,4.29,0.83,49.0,"['CCCCC(C)CC', 'Cc1cccs1', 'c1ccsc1', 'O=C1c2cscc2C(=O)c2cscc21', 'Cc1cc2cc3sccc3cc2s1']","['N#CCC#N', 'O=C1CCc2ccccc21', 'C', 'CCCCCC', 'c1ccc(C2(c3ccccc3)c3cc4c(cc3-c3sccc32)C(c2ccccc2)(c2ccccc2)c2ccsc2-4)cc1']","['CCCCC(C)CC', 'Cc1cccs1', 'c1ccsc1', 'O=C1c2cscc2C(=O)c2cscc21', 'Cc1cc2cc3sccc3cc2s1', '.', 'N#CCC#N', 'O=C1CCc2ccccc21', 'C', 'CCCCCC', 'c1ccc(C2(c3ccccc3)c3cc4c(cc3-c3sccc32)C(c2ccccc2)(c2ccccc2)c2ccsc2-4)cc1']","[0, 0, 0, 0, 0, 0, 3, 5, 6, 29, 8, 1, 9, 10, 11, 12, 36]"
PBDB-T,O-NTIC,-5.297714285714285,-3.4170000000000003,-5.51,-3.67,1.25,CB,19.9,DIO,25,PEDOT:PSS,PDINO,9.1,9.1,0.978,69.9,"['CCCCC(C)CC', 'Cc1cccs1', 'c1ccsc1', 'O=C1c2cscc2C(=O)c2cscc21', 'Cc1cc2cc3sccc3cc2s1']","['OS', 'CCCCCCC(C)CCCC', 'N#CCC#N', 'O=C1CCc2ccccc21', 'C', 'c1ccc(C2(c3ccccc3)c3ccsc3-c3c2ccc2c4c(ccc32)C(c2ccccc2)(c2ccccc2)c2ccsc2-4)cc1']","['CCCCC(C)CC', 'Cc1cccs1', 'c1ccsc1', 'O=C1c2cscc2C(=O)c2cscc21', 'Cc1cc2cc3sccc3cc2s1', '.', 'OS', 'CCCCCCC(C)CCCC', 'N#CCC#N', 'O=C1CCc2ccccc21', 'C', 'c1ccc(C2(c3ccccc3)c3ccsc3-c3c2ccc2c4c(ccc32)C(c2ccccc2)(c2ccccc2)c2ccsc2-4)cc1']","[0, 0, 0, 0, 0, 3, 5, 6, 29, 8, 1, 31, 32, 9, 10, 11, 72]"