Donor,Acceptor,HOMO_D_eV,LUMO_D_eV,HOMO_A_eV,LUMO_A_eV,D_A_ratio_m_m,solvent,solvent_additive,annealing_temperature,hole_contact_layer,electron_contact_layer,PCE_percent,calc_PCE_percent,Voc_V,FF_percent,Donor_BRICS,Acceptor_BRICS,DA_pair_BRICS,DA_tokenized_BRICS
PTB7-Th,IM-IDT,-5.204782608695651,-3.5391891891891896,-5.44,-4.0,1.0,o-DCB,DPE,100.0,PEDOT:PSS,Ca,1.6,1.41,0.58,49.16,"[<rdkit.Chem.rdchem.Mol object at 0x7f5838db4430>, <rdkit.Chem.rdchem.Mol object at 0x7f5838db5540>, <rdkit.Chem.rdchem.Mol object at 0x7f5838db6490>, <rdkit.Chem.rdchem.Mol object at 0x7f5838db4350>, <rdkit.Chem.rdchem.Mol object at 0x7f5838db4890>, <rdkit.Chem.rdchem.Mol object at 0x7f5838db4b30>, <rdkit.Chem.rdchem.Mol object at 0x7f5838db4f90>]","[<rdkit.Chem.rdchem.Mol object at 0x7f5838db4040>, <rdkit.Chem.rdchem.Mol object at 0x7f5838db7c30>, <rdkit.Chem.rdchem.Mol object at 0x7f5838db7df0>, <rdkit.Chem.rdchem.Mol object at 0x7f5838db7370>]","[<rdkit.Chem.rdchem.Mol object at 0x7f5838db4430>, <rdkit.Chem.rdchem.Mol object at 0x7f5838db5540>, <rdkit.Chem.rdchem.Mol object at 0x7f5838db6490>, <rdkit.Chem.rdchem.Mol object at 0x7f5838db4350>, <rdkit.Chem.rdchem.Mol object at 0x7f5838db4890>, <rdkit.Chem.rdchem.Mol object at 0x7f5838db4b30>, <rdkit.Chem.rdchem.Mol object at 0x7f5838db4f90>, '.', <rdkit.Chem.rdchem.Mol object at 0x7f5838db4040>, <rdkit.Chem.rdchem.Mol object at 0x7f5838db7c30>, <rdkit.Chem.rdchem.Mol object at 0x7f5838db7df0>, <rdkit.Chem.rdchem.Mol object at 0x7f5838db7370>]","[0, 0, 0, 0, 0, 2441, 2442, 2443, 2444, 2445, 2446, 2447, 1, 2448, 2449, 2450, 2451]"
PTB7-Th,COTIC-4F,-5.204782608695651,-3.5391891891891896,-5.26,-4.16,0.667,CB,CN,25.0,MoOx,ZnO,6.4,6.4,0.56,56.3,"[<rdkit.Chem.rdchem.Mol object at 0x7f5838db58c0>, <rdkit.Chem.rdchem.Mol object at 0x7f5838db62d0>, <rdkit.Chem.rdchem.Mol object at 0x7f5838db5fc0>, <rdkit.Chem.rdchem.Mol object at 0x7f5838db5ee0>, <rdkit.Chem.rdchem.Mol object at 0x7f5838db4eb0>, <rdkit.Chem.rdchem.Mol object at 0x7f5838db4dd0>, <rdkit.Chem.rdchem.Mol object at 0x7f5838db6ff0>]","[<rdkit.Chem.rdchem.Mol object at 0x7f5838db47b0>, <rdkit.Chem.rdchem.Mol object at 0x7f5838db66c0>, <rdkit.Chem.rdchem.Mol object at 0x7f5838db4190>, <rdkit.Chem.rdchem.Mol object at 0x7f5838db4510>, <rdkit.Chem.rdchem.Mol object at 0x7f5838db6650>, <rdkit.Chem.rdchem.Mol object at 0x7f5838db6ab0>, <rdkit.Chem.rdchem.Mol object at 0x7f5838db61f0>]","[<rdkit.Chem.rdchem.Mol object at 0x7f5838db58c0>, <rdkit.Chem.rdchem.Mol object at 0x7f5838db62d0>, <rdkit.Chem.rdchem.Mol object at 0x7f5838db5fc0>, <rdkit.Chem.rdchem.Mol object at 0x7f5838db5ee0>, <rdkit.Chem.rdchem.Mol object at 0x7f5838db4eb0>, <rdkit.Chem.rdchem.Mol object at 0x7f5838db4dd0>, <rdkit.Chem.rdchem.Mol object at 0x7f5838db6ff0>, '.', <rdkit.Chem.rdchem.Mol object at 0x7f5838db47b0>, <rdkit.Chem.rdchem.Mol object at 0x7f5838db66c0>, <rdkit.Chem.rdchem.Mol object at 0x7f5838db4190>, <rdkit.Chem.rdchem.Mol object at 0x7f5838db4510>, <rdkit.Chem.rdchem.Mol object at 0x7f5838db6650>, <rdkit.Chem.rdchem.Mol object at 0x7f5838db6ab0>, <rdkit.Chem.rdchem.Mol object at 0x7f5838db61f0>]","[0, 0, 2463, 2464, 2465, 2466, 2467, 2468, 2469, 1, 2470, 2471, 2472, 2473, 2474, 2475, 2476]"
P3HT,BTA101,-5.057777777777777,-2.989444444444445,-5.05,-2.99,1.0,CF,_,120.0,PEDOT:PSS,Ca,3.55,3.55,1.19,56.0,"[<rdkit.Chem.rdchem.Mol object at 0x7f5838db43c0>, <rdkit.Chem.rdchem.Mol object at 0x7f5838db63b0>, <rdkit.Chem.rdchem.Mol object at 0x7f5838dc18c0>, <rdkit.Chem.rdchem.Mol object at 0x7f5838dc19a0>]","[<rdkit.Chem.rdchem.Mol object at 0x7f5838db6e30>, <rdkit.Chem.rdchem.Mol object at 0x7f5838db44a0>, <rdkit.Chem.rdchem.Mol object at 0x7f5838dc1fc0>, <rdkit.Chem.rdchem.Mol object at 0x7f5838dc1af0>, <rdkit.Chem.rdchem.Mol object at 0x7f5838dc1b60>, <rdkit.Chem.rdchem.Mol object at 0x7f5838dc1bd0>, <rdkit.Chem.rdchem.Mol object at 0x7f5838dc2730>, <rdkit.Chem.rdchem.Mol object at 0x7f5838dc2650>]","[<rdkit.Chem.rdchem.Mol object at 0x7f5838db43c0>, <rdkit.Chem.rdchem.Mol object at 0x7f5838db63b0>, <rdkit.Chem.rdchem.Mol object at 0x7f5838dc18c0>, <rdkit.Chem.rdchem.Mol object at 0x7f5838dc19a0>, '.', <rdkit.Chem.rdchem.Mol object at 0x7f5838db6e30>, <rdkit.Chem.rdchem.Mol object at 0x7f5838db44a0>, <rdkit.Chem.rdchem.Mol object at 0x7f5838dc1fc0>, <rdkit.Chem.rdchem.Mol object at 0x7f5838dc1af0>, <rdkit.Chem.rdchem.Mol object at 0x7f5838dc1b60>, <rdkit.Chem.rdchem.Mol object at 0x7f5838dc1bd0>, <rdkit.Chem.rdchem.Mol object at 0x7f5838dc2730>, <rdkit.Chem.rdchem.Mol object at 0x7f5838dc2650>]","[0, 0, 0, 0, 2503, 2504, 2505, 2506, 1, 2507, 2508, 2509, 2510, 2511, 2512, 2513, 2514]"
PTB7-Th,6TIC,-5.204782608695651,-3.5391891891891896,-5.33,-3.885,0.667,CB,DIO,150.0,MoOx,ZnO,11.07,11.06,0.831,66.16,"[<rdkit.Chem.rdchem.Mol object at 0x7f5838db67a0>, <rdkit.Chem.rdchem.Mol object at 0x7f5838db6110>, <rdkit.Chem.rdchem.Mol object at 0x7f5838db7d80>, <rdkit.Chem.rdchem.Mol object at 0x7f5838db6b20>, <rdkit.Chem.rdchem.Mol object at 0x7f5838dc2880>, <rdkit.Chem.rdchem.Mol object at 0x7f5838dc1930>, <rdkit.Chem.rdchem.Mol object at 0x7f5838dc1070>]","[<rdkit.Chem.rdchem.Mol object at 0x7f5838dc1700>, <rdkit.Chem.rdchem.Mol object at 0x7f5838dc17e0>, <rdkit.Chem.rdchem.Mol object at 0x7f5838db7a00>, <rdkit.Chem.rdchem.Mol object at 0x7f5838dc10e0>, <rdkit.Chem.rdchem.Mol object at 0x7f5838dc12a0>]","[<rdkit.Chem.rdchem.Mol object at 0x7f5838db67a0>, <rdkit.Chem.rdchem.Mol object at 0x7f5838db6110>, <rdkit.Chem.rdchem.Mol object at 0x7f5838db7d80>, <rdkit.Chem.rdchem.Mol object at 0x7f5838db6b20>, <rdkit.Chem.rdchem.Mol object at 0x7f5838dc2880>, <rdkit.Chem.rdchem.Mol object at 0x7f5838dc1930>, <rdkit.Chem.rdchem.Mol object at 0x7f5838dc1070>, '.', <rdkit.Chem.rdchem.Mol object at 0x7f5838dc1700>, <rdkit.Chem.rdchem.Mol object at 0x7f5838dc17e0>, <rdkit.Chem.rdchem.Mol object at 0x7f5838db7a00>, <rdkit.Chem.rdchem.Mol object at 0x7f5838dc10e0>, <rdkit.Chem.rdchem.Mol object at 0x7f5838dc12a0>]","[0, 0, 0, 0, 2525, 2526, 2527, 2528, 2529, 2530, 2531, 1, 2532, 2533, 2534, 2535, 2536]"
PTB7-Th,COi8DFIC,-5.204782608695651,-3.5391891891891896,-5.5,-3.88,1.0,CB,DIO,25.0,MoOx,ZnO,12.16,12.11,0.68,68.2,"[<rdkit.Chem.rdchem.Mol object at 0x7f5838db60a0>, <rdkit.Chem.rdchem.Mol object at 0x7f5838dc1540>, <rdkit.Chem.rdchem.Mol object at 0x7f5838dc1230>, <rdkit.Chem.rdchem.Mol object at 0x7f5838dc0350>, <rdkit.Chem.rdchem.Mol object at 0x7f5838dc1f50>, <rdkit.Chem.rdchem.Mol object at 0x7f5838dc27a0>, <rdkit.Chem.rdchem.Mol object at 0x7f5838dc13f0>]","[<rdkit.Chem.rdchem.Mol object at 0x7f5838dc1a10>, <rdkit.Chem.rdchem.Mol object at 0x7f5838dc14d0>, <rdkit.Chem.rdchem.Mol object at 0x7f5838dc1cb0>, <rdkit.Chem.rdchem.Mol object at 0x7f5838dc2110>, <rdkit.Chem.rdchem.Mol object at 0x7f5838dc1e00>]","[<rdkit.Chem.rdchem.Mol object at 0x7f5838db60a0>, <rdkit.Chem.rdchem.Mol object at 0x7f5838dc1540>, <rdkit.Chem.rdchem.Mol object at 0x7f5838dc1230>, <rdkit.Chem.rdchem.Mol object at 0x7f5838dc0350>, <rdkit.Chem.rdchem.Mol object at 0x7f5838dc1f50>, <rdkit.Chem.rdchem.Mol object at 0x7f5838dc27a0>, <rdkit.Chem.rdchem.Mol object at 0x7f5838dc13f0>, '.', <rdkit.Chem.rdchem.Mol object at 0x7f5838dc1a10>, <rdkit.Chem.rdchem.Mol object at 0x7f5838dc14d0>, <rdkit.Chem.rdchem.Mol object at 0x7f5838dc1cb0>, <rdkit.Chem.rdchem.Mol object at 0x7f5838dc2110>, <rdkit.Chem.rdchem.Mol object at 0x7f5838dc1e00>]","[0, 0, 0, 0, 2537, 2538, 2539, 2540, 2541, 2542, 2543, 1, 2544, 2545, 2546, 2547, 2548]"
PTB7-Th,IDT-2BR,-5.204782608695651,-3.5391891891891896,-5.52,-3.69,1.0,o-DCB:CF (4:1),CN,25.0,PEDOT:PSS,Ca,7.7,8.32,0.99,60.0,"[<rdkit.Chem.rdchem.Mol object at 0x7f5838dc15b0>, <rdkit.Chem.rdchem.Mol object at 0x7f5838dc0510>, <rdkit.Chem.rdchem.Mol object at 0x7f5838dc0f20>, <rdkit.Chem.rdchem.Mol object at 0x7f5838dc0660>, <rdkit.Chem.rdchem.Mol object at 0x7f5838dc11c0>, <rdkit.Chem.rdchem.Mol object at 0x7f5838dc1850>, <rdkit.Chem.rdchem.Mol object at 0x7f5838dc20a0>]","[<rdkit.Chem.rdchem.Mol object at 0x7f5838dc0a50>, <rdkit.Chem.rdchem.Mol object at 0x7f5838dc29d0>, <rdkit.Chem.rdchem.Mol object at 0x7f5838dc1d20>, <rdkit.Chem.rdchem.Mol object at 0x7f5838dc1000>, <rdkit.Chem.rdchem.Mol object at 0x7f5838dc0ba0>, <rdkit.Chem.rdchem.Mol object at 0x7f5838dc0d60>]","[<rdkit.Chem.rdchem.Mol object at 0x7f5838dc15b0>, <rdkit.Chem.rdchem.Mol object at 0x7f5838dc0510>, <rdkit.Chem.rdchem.Mol object at 0x7f5838dc0f20>, <rdkit.Chem.rdchem.Mol object at 0x7f5838dc0660>, <rdkit.Chem.rdchem.Mol object at 0x7f5838dc11c0>, <rdkit.Chem.rdchem.Mol object at 0x7f5838dc1850>, <rdkit.Chem.rdchem.Mol object at 0x7f5838dc20a0>, '.', <rdkit.Chem.rdchem.Mol object at 0x7f5838dc0a50>, <rdkit.Chem.rdchem.Mol object at 0x7f5838dc29d0>, <rdkit.Chem.rdchem.Mol object at 0x7f5838dc1d20>, <rdkit.Chem.rdchem.Mol object at 0x7f5838dc1000>, <rdkit.Chem.rdchem.Mol object at 0x7f5838dc0ba0>, <rdkit.Chem.rdchem.Mol object at 0x7f5838dc0d60>]","[0, 0, 0, 2549, 2550, 2551, 2552, 2553, 2554, 2555, 1, 2556, 2557, 2558, 2559, 2560, 2561]"
PTB7-Th,IDT-2BR1,-5.204782608695651,-3.5391891891891896,-5.37,-3.67,1.0,o-DCB:CF (4:1),CN,25.0,PEDOT:PSS,Ca,8.7,8.66,0.95,60.0,"[<rdkit.Chem.rdchem.Mol object at 0x7f5838dc03c0>, <rdkit.Chem.rdchem.Mol object at 0x7f5838dc1770>, <rdkit.Chem.rdchem.Mol object at 0x7f5838dc1460>, <rdkit.Chem.rdchem.Mol object at 0x7f5838dc2960>, <rdkit.Chem.rdchem.Mol object at 0x7f5838dc1d90>, <rdkit.Chem.rdchem.Mol object at 0x7f5838dc1150>, <rdkit.Chem.rdchem.Mol object at 0x7f5838dc0dd0>]","[<rdkit.Chem.rdchem.Mol object at 0x7f5838dc1310>, <rdkit.Chem.rdchem.Mol object at 0x7f5838dc09e0>, <rdkit.Chem.rdchem.Mol object at 0x7f5838dc25e0>, <rdkit.Chem.rdchem.Mol object at 0x7f5838dc1e70>, <rdkit.Chem.rdchem.Mol object at 0x7f5838dc1380>]","[<rdkit.Chem.rdchem.Mol object at 0x7f5838dc03c0>, <rdkit.Chem.rdchem.Mol object at 0x7f5838dc1770>, <rdkit.Chem.rdchem.Mol object at 0x7f5838dc1460>, <rdkit.Chem.rdchem.Mol object at 0x7f5838dc2960>, <rdkit.Chem.rdchem.Mol object at 0x7f5838dc1d90>, <rdkit.Chem.rdchem.Mol object at 0x7f5838dc1150>, <rdkit.Chem.rdchem.Mol object at 0x7f5838dc0dd0>, '.', <rdkit.Chem.rdchem.Mol object at 0x7f5838dc1310>, <rdkit.Chem.rdchem.Mol object at 0x7f5838dc09e0>, <rdkit.Chem.rdchem.Mol object at 0x7f5838dc25e0>, <rdkit.Chem.rdchem.Mol object at 0x7f5838dc1e70>, <rdkit.Chem.rdchem.Mol object at 0x7f5838dc1380>]","[0, 0, 0, 0, 2562, 2563, 2564, 2565, 2566, 2567, 2568, 1, 2569, 2570, 2571, 2572, 2573]"
PTB7-Th,ATT-2,-5.204782608695651,-3.5391891891891896,-5.5,-3.9,0.556,CB,CN,25.0,MoOx,ZnO,9.58,9.54,0.73,63.0,"[<rdkit.Chem.rdchem.Mol object at 0x7f5838dc1690>, <rdkit.Chem.rdchem.Mol object at 0x7f5838dc2030>, <rdkit.Chem.rdchem.Mol object at 0x7f5838dc1a80>, <rdkit.Chem.rdchem.Mol object at 0x7f5838dc0120>, <rdkit.Chem.rdchem.Mol object at 0x7f5838dc22d0>, <rdkit.Chem.rdchem.Mol object at 0x7f5838dc0f90>, <rdkit.Chem.rdchem.Mol object at 0x7f5838dc2570>]","[<rdkit.Chem.rdchem.Mol object at 0x7f5838dc02e0>, <rdkit.Chem.rdchem.Mol object at 0x7f5838dc0eb0>, <rdkit.Chem.rdchem.Mol object at 0x7f5838dc07b0>, <rdkit.Chem.rdchem.Mol object at 0x7f5838dc0c80>, <rdkit.Chem.rdchem.Mol object at 0x7f5838dc0190>, <rdkit.Chem.rdchem.Mol object at 0x7f5838dc26c0>, <rdkit.Chem.rdchem.Mol object at 0x7f5838dc23b0>, <rdkit.Chem.rdchem.Mol object at 0x7f5838dc2dc0>, <rdkit.Chem.rdchem.Mol object at 0x7f5838dc2ab0>]","[<rdkit.Chem.rdchem.Mol object at 0x7f5838dc1690>, <rdkit.Chem.rdchem.Mol object at 0x7f5838dc2030>, <rdkit.Chem.rdchem.Mol object at 0x7f5838dc1a80>, <rdkit.Chem.rdchem.Mol object at 0x7f5838dc0120>, <rdkit.Chem.rdchem.Mol object at 0x7f5838dc22d0>, <rdkit.Chem.rdchem.Mol object at 0x7f5838dc0f90>, <rdkit.Chem.rdchem.Mol object at 0x7f5838dc2570>, '.', <rdkit.Chem.rdchem.Mol object at 0x7f5838dc02e0>, <rdkit.Chem.rdchem.Mol object at 0x7f5838dc0eb0>, <rdkit.Chem.rdchem.Mol object at 0x7f5838dc07b0>, <rdkit.Chem.rdchem.Mol object at 0x7f5838dc0c80>, <rdkit.Chem.rdchem.Mol object at 0x7f5838dc0190>, <rdkit.Chem.rdchem.Mol object at 0x7f5838dc26c0>, <rdkit.Chem.rdchem.Mol object at 0x7f5838dc23b0>, <rdkit.Chem.rdchem.Mol object at 0x7f5838dc2dc0>, <rdkit.Chem.rdchem.Mol object at 0x7f5838dc2ab0>]","[2574, 2575, 2576, 2577, 2578, 2579, 2580, 1, 2581, 2582, 2583, 2584, 2585, 2586, 2587, 2588, 2589]"
PTB7-Th,T1,-5.204782608695651,-3.5391891891891896,-5.42,-3.91,0.556,CB,_,25.0,MoOx,ZnO,9.82,9.8,0.72,65.0,"[<rdkit.Chem.rdchem.Mol object at 0x7f5838dc2f80>, <rdkit.Chem.rdchem.Mol object at 0x7f5838dc2ff0>, <rdkit.Chem.rdchem.Mol object at 0x7f5838dc0cf0>, <rdkit.Chem.rdchem.Mol object at 0x7f5838dc2e30>, <rdkit.Chem.rdchem.Mol object at 0x7f5838dc00b0>, <rdkit.Chem.rdchem.Mol object at 0x7f5838dc0270>, <rdkit.Chem.rdchem.Mol object at 0x7f5838dc1ee0>]","[<rdkit.Chem.rdchem.Mol object at 0x7f5838dc0ac0>, <rdkit.Chem.rdchem.Mol object at 0x7f5838dc0200>, <rdkit.Chem.rdchem.Mol object at 0x7f5838dc2490>, <rdkit.Chem.rdchem.Mol object at 0x7f5838dc2420>, <rdkit.Chem.rdchem.Mol object at 0x7f5838dc0890>, <rdkit.Chem.rdchem.Mol object at 0x7f5838dc0c10>, <rdkit.Chem.rdchem.Mol object at 0x7f5838dc2500>, <rdkit.Chem.rdchem.Mol object at 0x7f5838dc34c0>, <rdkit.Chem.rdchem.Mol object at 0x7f5838dc3140>]","[<rdkit.Chem.rdchem.Mol object at 0x7f5838dc2f80>, <rdkit.Chem.rdchem.Mol object at 0x7f5838dc2ff0>, <rdkit.Chem.rdchem.Mol object at 0x7f5838dc0cf0>, <rdkit.Chem.rdchem.Mol object at 0x7f5838dc2e30>, <rdkit.Chem.rdchem.Mol object at 0x7f5838dc00b0>, <rdkit.Chem.rdchem.Mol object at 0x7f5838dc0270>, <rdkit.Chem.rdchem.Mol object at 0x7f5838dc1ee0>, '.', <rdkit.Chem.rdchem.Mol object at 0x7f5838dc0ac0>, <rdkit.Chem.rdchem.Mol object at 0x7f5838dc0200>, <rdkit.Chem.rdchem.Mol object at 0x7f5838dc2490>, <rdkit.Chem.rdchem.Mol object at 0x7f5838dc2420>, <rdkit.Chem.rdchem.Mol object at 0x7f5838dc0890>, <rdkit.Chem.rdchem.Mol object at 0x7f5838dc0c10>, <rdkit.Chem.rdchem.Mol object at 0x7f5838dc2500>, <rdkit.Chem.rdchem.Mol object at 0x7f5838dc34c0>, <rdkit.Chem.rdchem.Mol object at 0x7f5838dc3140>]","[2590, 2591, 2592, 2593, 2594, 2595, 2596, 1, 2597, 2598, 2599, 2600, 2601, 2602, 2603, 2604, 2605]"
PTB7-Th,T2,-5.204782608695651,-3.5391891891891896,-5.34,-3.96,0.556,CB,_,25.0,MoOx,ZnO,10.1,10.02,0.67,66.0,"[<rdkit.Chem.rdchem.Mol object at 0x7f5838dc3680>, <rdkit.Chem.rdchem.Mol object at 0x7f5838dc36f0>, <rdkit.Chem.rdchem.Mol object at 0x7f5838dc2d50>, <rdkit.Chem.rdchem.Mol object at 0x7f5838dc3530>, <rdkit.Chem.rdchem.Mol object at 0x7f5838dc06d0>, <rdkit.Chem.rdchem.Mol object at 0x7f5838dc2c70>, <rdkit.Chem.rdchem.Mol object at 0x7f5838dc2b90>]","[<rdkit.Chem.rdchem.Mol object at 0x7f5838dc2b20>, <rdkit.Chem.rdchem.Mol object at 0x7f5838dc0970>, <rdkit.Chem.rdchem.Mol object at 0x7f5838dc2180>, <rdkit.Chem.rdchem.Mol object at 0x7f5838dc2260>, <rdkit.Chem.rdchem.Mol object at 0x7f5838dc0820>, <rdkit.Chem.rdchem.Mol object at 0x7f5838dc0900>, <rdkit.Chem.rdchem.Mol object at 0x7f5838dc1c40>, <rdkit.Chem.rdchem.Mol object at 0x7f5838dc3bc0>, <rdkit.Chem.rdchem.Mol object at 0x7f5838dc3840>]","[<rdkit.Chem.rdchem.Mol object at 0x7f5838dc3680>, <rdkit.Chem.rdchem.Mol object at 0x7f5838dc36f0>, <rdkit.Chem.rdchem.Mol object at 0x7f5838dc2d50>, <rdkit.Chem.rdchem.Mol object at 0x7f5838dc3530>, <rdkit.Chem.rdchem.Mol object at 0x7f5838dc06d0>, <rdkit.Chem.rdchem.Mol object at 0x7f5838dc2c70>, <rdkit.Chem.rdchem.Mol object at 0x7f5838dc2b90>, '.', <rdkit.Chem.rdchem.Mol object at 0x7f5838dc2b20>, <rdkit.Chem.rdchem.Mol object at 0x7f5838dc0970>, <rdkit.Chem.rdchem.Mol object at 0x7f5838dc2180>, <rdkit.Chem.rdchem.Mol object at 0x7f5838dc2260>, <rdkit.Chem.rdchem.Mol object at 0x7f5838dc0820>, <rdkit.Chem.rdchem.Mol object at 0x7f5838dc0900>, <rdkit.Chem.rdchem.Mol object at 0x7f5838dc1c40>, <rdkit.Chem.rdchem.Mol object at 0x7f5838dc3bc0>, <rdkit.Chem.rdchem.Mol object at 0x7f5838dc3840>]","[2606, 2607, 2608, 2609, 2610, 2611, 2612, 1, 2613, 2614, 2615, 2616, 2617, 2618, 2619, 2620, 2621]"
PTB7-Th,ATT-1,-5.204782608695651,-3.5391891891891896,-5.5,-3.63,0.667,o-DCB,DIO,25.0,PEDOT:PSS,PFN-Br,10.07,10.04,0.87,70.0,"[<rdkit.Chem.rdchem.Mol object at 0x7f5838dc2810>, <rdkit.Chem.rdchem.Mol object at 0x7f5838dc3a70>, <rdkit.Chem.rdchem.Mol object at 0x7f5838dc2c00>, <rdkit.Chem.rdchem.Mol object at 0x7f5838dc3ca0>, <rdkit.Chem.rdchem.Mol object at 0x7f5838dc38b0>, <rdkit.Chem.rdchem.Mol object at 0x7f5838dc3760>, <rdkit.Chem.rdchem.Mol object at 0x7f5838db65e0>]","[<rdkit.Chem.rdchem.Mol object at 0x7f5838dc35a0>, <rdkit.Chem.rdchem.Mol object at 0x7f5838dc3610>, <rdkit.Chem.rdchem.Mol object at 0x7f5838dc31b0>, <rdkit.Chem.rdchem.Mol object at 0x7f5838dc37d0>, <rdkit.Chem.rdchem.Mol object at 0x7f5838dc3d10>, <rdkit.Chem.rdchem.Mol object at 0x7f5838dc42e0>, <rdkit.Chem.rdchem.Mol object at 0x7f5838dc44a0>]","[<rdkit.Chem.rdchem.Mol object at 0x7f5838dc2810>, <rdkit.Chem.rdchem.Mol object at 0x7f5838dc3a70>, <rdkit.Chem.rdchem.Mol object at 0x7f5838dc2c00>, <rdkit.Chem.rdchem.Mol object at 0x7f5838dc3ca0>, <rdkit.Chem.rdchem.Mol object at 0x7f5838dc38b0>, <rdkit.Chem.rdchem.Mol object at 0x7f5838dc3760>, <rdkit.Chem.rdchem.Mol object at 0x7f5838db65e0>, '.', <rdkit.Chem.rdchem.Mol object at 0x7f5838dc35a0>, <rdkit.Chem.rdchem.Mol object at 0x7f5838dc3610>, <rdkit.Chem.rdchem.Mol object at 0x7f5838dc31b0>, <rdkit.Chem.rdchem.Mol object at 0x7f5838dc37d0>, <rdkit.Chem.rdchem.Mol object at 0x7f5838dc3d10>, <rdkit.Chem.rdchem.Mol object at 0x7f5838dc42e0>, <rdkit.Chem.rdchem.Mol object at 0x7f5838dc44a0>]","[0, 0, 2638, 2639, 2640, 2641, 2642, 2643, 2644, 1, 2645, 2646, 2647, 2648, 2649, 2650, 2651]"
PDBT-T1,IC-C6IDT-IC,-5.36,-3.43,-5.69,-3.91,1.0,CF,_,25.0,MoOx,ZnO,8.71,8.71,0.89,65.0,"[<rdkit.Chem.rdchem.Mol object at 0x7f5838db70d0>, <rdkit.Chem.rdchem.Mol object at 0x7f5838dc3a00>, <rdkit.Chem.rdchem.Mol object at 0x7f5838dc4660>, <rdkit.Chem.rdchem.Mol object at 0x7f5838dc4040>, <rdkit.Chem.rdchem.Mol object at 0x7f5838dc4900>, <rdkit.Chem.rdchem.Mol object at 0x7f5838dc4d60>]","[<rdkit.Chem.rdchem.Mol object at 0x7f5838dc3920>, <rdkit.Chem.rdchem.Mol object at 0x7f5838dc5380>, <rdkit.Chem.rdchem.Mol object at 0x7f5838dc33e0>, <rdkit.Chem.rdchem.Mol object at 0x7f5838dc3990>]","[<rdkit.Chem.rdchem.Mol object at 0x7f5838db70d0>, <rdkit.Chem.rdchem.Mol object at 0x7f5838dc3a00>, <rdkit.Chem.rdchem.Mol object at 0x7f5838dc4660>, <rdkit.Chem.rdchem.Mol object at 0x7f5838dc4040>, <rdkit.Chem.rdchem.Mol object at 0x7f5838dc4900>, <rdkit.Chem.rdchem.Mol object at 0x7f5838dc4d60>, '.', <rdkit.Chem.rdchem.Mol object at 0x7f5838dc3920>, <rdkit.Chem.rdchem.Mol object at 0x7f5838dc5380>, <rdkit.Chem.rdchem.Mol object at 0x7f5838dc33e0>, <rdkit.Chem.rdchem.Mol object at 0x7f5838dc3990>]","[0, 0, 0, 0, 0, 0, 2652, 2653, 2654, 2655, 2656, 2657, 1, 2658, 2659, 2660, 2661]"