Donor,Acceptor,HOMO_D_eV,LUMO_D_eV,HOMO_A_eV,LUMO_A_eV,D_A_ratio_m_m,solvent,solvent_additive,annealing_temperature,hole_contact_layer,electron_contact_layer,PCE_percent,calc_PCE_percent,Voc_V,FF_percent,Donor_BRICS,Acceptor_BRICS,DA_pair_BRICS,DA_tokenized_BRICS
PDBT-F,IDIC,-5.39,-3.57,-5.706,-4.002666666666667,1.0,CF,DIO,100.0,PEDOT:PSS,PFN-Br,11.02,10.98,0.87,71.5,"['[8*]CC(CC)CCCC', '[14*]c1ccc(C)s1', '[14*]c1cc(F)c([14*])s1', '[14*]c1sc([14*])c2c1C(=O)c1c([14*])sc([14*])c1C2=O', '[14*]c1ccc([14*])s1', '[14*]c1cc2sc3c([16*])c4c(sc5cc(C)sc54)c([16*])c3c2s1']","['[7*]C(C#N)C#N', '[7*]C1C(=O)c2ccccc2C1[7*]', '[7*]C[8*]', '[14*]c1cc2c(s1)-c1cc3c(cc1C2(CCCCCC)CCCCCC)-c1sc([14*])cc1C3(CCCCCC)CCCCCC']","['[8*]CC(CC)CCCC', '[14*]c1ccc(C)s1', '[14*]c1cc(F)c([14*])s1', '[14*]c1sc([14*])c2c1C(=O)c1c([14*])sc([14*])c1C2=O', '[14*]c1ccc([14*])s1', '[14*]c1cc2sc3c([16*])c4c(sc5cc(C)sc54)c([16*])c3c2s1', '.', '[7*]C(C#N)C#N', '[7*]C1C(=O)c2ccccc2C1[7*]', '[7*]C[8*]', '[14*]c1cc2c(s1)-c1cc3c(cc1C2(CCCCCC)CCCCCC)-c1sc([14*])cc1C3(CCCCCC)CCCCCC']","[0, 0, 0, 0, 0, 0, 5, 6, 24, 30, 7, 31, 1, 10, 11, 12, 29]"
PBDS-T,ITIC,-5.349999999999999,-3.67,-5.574146341463415,-3.915,1.2,CB,DIO,25.0,MoOx,ZnO,10.72,10.72,0.98,60.0,"['[8*]CC(CC)CCCC', '[13*]C1CCC([13*])S1', '[14*]c1ccc(C)s1', '[13*]C1SC([13*])C2C(=O)c3c([14*])sc([14*])c3C(=O)C12', '[14*]c1ccc([Si](CCC)(CCC)CCC)s1', '[14*]c1cc2c([16*])c3sc(C)cc3c([16*])c2s1']","['[7*]C(C#N)C#N', '[7*]C1C(=O)c2ccccc2C1[7*]', '[7*]C[8*]', '[8*]CCCCCC', '[14*]c1cc2sc3c(c2s1)C(c1ccc([16*])cc1)(c1ccc([16*])cc1)c1cc2c(cc1-3)C(c1ccc([16*])cc1)(c1ccc([16*])cc1)c1c-2sc2cc([14*])sc12']","['[8*]CC(CC)CCCC', '[13*]C1CCC([13*])S1', '[14*]c1ccc(C)s1', '[13*]C1SC([13*])C2C(=O)c3c([14*])sc([14*])c3C(=O)C12', '[14*]c1ccc([Si](CCC)(CCC)CCC)s1', '[14*]c1cc2c([16*])c3sc(C)cc3c([16*])c2s1', '.', '[7*]C(C#N)C#N', '[7*]C1C(=O)c2ccccc2C1[7*]', '[7*]C[8*]', '[8*]CCCCCC', '[14*]c1cc2sc3c(c2s1)C(c1ccc([16*])cc1)(c1ccc([16*])cc1)c1cc2c(cc1-3)C(c1ccc([16*])cc1)(c1ccc([16*])cc1)c1c-2sc2cc([14*])sc12']","[0, 0, 0, 0, 0, 5, 220, 6, 221, 18, 9, 1, 10, 11, 12, 13, 15]"
PBDS-T,ITIC-F,-5.349999999999999,-3.67,-5.619999999999999,-4.02,1.0,CB,DIO,25.0,MoOx,ZnO,11.19,11.19,0.9,66.7,"['[8*]CC(CC)CCCC', '[13*]C1CCC([13*])S1', '[14*]c1ccc(C)s1', '[13*]C1SC([13*])C2C(=O)c3c([14*])sc([14*])c3C(=O)C12', '[14*]c1ccc([Si](CCC)(CCC)CCC)s1', '[14*]c1cc2c([16*])c3sc(C)cc3c([16*])c2s1']","['[7*]C(C#N)C#N', '[7*]C1C(=O)c2cc(F)c(F)cc2C1[7*]', '[7*]C[8*]', '[8*]CCCCCC', '[14*]c1cc2sc3c(c2s1)C(c1ccc([16*])cc1)(c1ccc([16*])cc1)c1cc2c(cc1-3)C(c1ccc([16*])cc1)(c1ccc([16*])cc1)c1c-2sc2cc([14*])sc12']","['[8*]CC(CC)CCCC', '[13*]C1CCC([13*])S1', '[14*]c1ccc(C)s1', '[13*]C1SC([13*])C2C(=O)c3c([14*])sc([14*])c3C(=O)C12', '[14*]c1ccc([Si](CCC)(CCC)CCC)s1', '[14*]c1cc2c([16*])c3sc(C)cc3c([16*])c2s1', '.', '[7*]C(C#N)C#N', '[7*]C1C(=O)c2cc(F)c(F)cc2C1[7*]', '[7*]C[8*]', '[8*]CCCCCC', '[14*]c1cc2sc3c(c2s1)C(c1ccc([16*])cc1)(c1ccc([16*])cc1)c1cc2c(cc1-3)C(c1ccc([16*])cc1)(c1ccc([16*])cc1)c1c-2sc2cc([14*])sc12']","[0, 0, 0, 0, 0, 5, 220, 6, 221, 18, 9, 1, 10, 42, 12, 13, 15]"
J71,ITDM,-5.353333333333333,-3.4318181818181825,-5.58,-3.82,1.0,CF,_,100.0,PEDOT:PSS,ZrAcAc,12.05,12.05,1.015,70.9,"['[8*]CC(CCCCCC)CCCCCCCC', '[14*]c1ccc(C)s1', '[14*]c1ccc([Si](CCC)(CCC)CCC)s1', '[14*]c1ccc([14*])s1', '[9*]n1nc2c([16*])c(F)c(F)c([16*])c2n1', '[14*]c1cc2c([16*])c3sc(C)cc3c([16*])c2s1']","['[7*]C(C#N)C#N', '[7*]C1C(=O)c2cc(C)c(C)cc2C1[7*]', '[7*]C[8*]', '[8*]CCCCCC', '[7*]CC1=CC2SC3=C(C2S1)C(c1ccc([16*])cc1)(c1ccc([16*])cc1)c1cc2c(cc13)C(c1ccc([16*])cc1)(c1ccc([16*])cc1)c1c-2sc2cc([14*])sc12']","['[8*]CC(CCCCCC)CCCCCCCC', '[14*]c1ccc(C)s1', '[14*]c1ccc([Si](CCC)(CCC)CCC)s1', '[14*]c1ccc([14*])s1', '[9*]n1nc2c([16*])c(F)c(F)c([16*])c2n1', '[14*]c1cc2c([16*])c3sc(C)cc3c([16*])c2s1', '.', '[7*]C(C#N)C#N', '[7*]C1C(=O)c2cc(C)c(C)cc2C1[7*]', '[7*]C[8*]', '[8*]CCCCCC', '[7*]CC1=CC2SC3=C(C2S1)C(c1ccc([16*])cc1)(c1ccc([16*])cc1)c1cc2c(cc13)C(c1ccc([16*])cc1)(c1ccc([16*])cc1)c1c-2sc2cc([14*])sc12']","[0, 0, 0, 0, 0, 17, 6, 18, 7, 19, 9, 1, 10, 185, 12, 13, 222]"
J71,ITCF,-5.353333333333333,-3.4318181818181825,-5.59,-3.95,1.0,CF,_,100.0,PEDOT:PSS,ZrAcAc,13.25,13.25,0.91,78.8,"['[8*]CC(CCCCCC)CCCCCCCC', '[14*]c1ccc(C)s1', '[14*]c1ccc([Si](CCC)(CCC)CCC)s1', '[14*]c1ccc([14*])s1', '[9*]n1nc2c([16*])c(F)c(F)c([16*])c2n1', '[14*]c1cc2c([16*])c3sc(C)cc3c([16*])c2s1']","['[7*]C(C#N)C#N', '[7*]C1C(=O)c2cc(F)c(C)cc2C1[7*]', '[7*]C[8*]', '[8*]CCCCCC', '[14*]c1cc2sc3c(c2s1)C(c1ccc([16*])cc1)(c1ccc([16*])cc1)c1cc2c(cc1-3)C(c1ccc([16*])cc1)(c1ccc([16*])cc1)c1c-2sc2cc([14*])sc12']","['[8*]CC(CCCCCC)CCCCCCCC', '[14*]c1ccc(C)s1', '[14*]c1ccc([Si](CCC)(CCC)CCC)s1', '[14*]c1ccc([14*])s1', '[9*]n1nc2c([16*])c(F)c(F)c([16*])c2n1', '[14*]c1cc2c([16*])c3sc(C)cc3c([16*])c2s1', '.', '[7*]C(C#N)C#N', '[7*]C1C(=O)c2cc(F)c(C)cc2C1[7*]', '[7*]C[8*]', '[8*]CCCCCC', '[14*]c1cc2sc3c(c2s1)C(c1ccc([16*])cc1)(c1ccc([16*])cc1)c1cc2c(cc1-3)C(c1ccc([16*])cc1)(c1ccc([16*])cc1)c1c-2sc2cc([14*])sc12']","[0, 0, 0, 0, 0, 17, 6, 18, 7, 19, 9, 1, 10, 223, 12, 13, 15]"
J71,IT-4F,-5.353333333333333,-3.4318181818181825,-5.66875,-4.060416666666667,1.0,CF,_,100.0,PEDOT:PSS,ZrAcAc,11.66,11.67,0.803,74.2,"['[8*]CC(CCCCCC)CCCCCCCC', '[14*]c1ccc(C)s1', '[14*]c1ccc([Si](CCC)(CCC)CCC)s1', '[14*]c1ccc([14*])s1', '[9*]n1nc2c([16*])c(F)c(F)c([16*])c2n1', '[14*]c1cc2c([16*])c3sc(C)cc3c([16*])c2s1']","['[7*]C(C#N)C#N', '[7*]C1C(=O)c2cc(F)c(F)cc2C1[7*]', '[7*]C[8*]', '[8*]CCCCCC', '[14*]c1cc2sc3c(c2s1)C(c1ccc([16*])cc1)(c1ccc([16*])cc1)c1cc2c(cc1-3)C(c1ccc([16*])cc1)(c1ccc([16*])cc1)c1c-2sc2cc([14*])sc12']","['[8*]CC(CCCCCC)CCCCCCCC', '[14*]c1ccc(C)s1', '[14*]c1ccc([Si](CCC)(CCC)CCC)s1', '[14*]c1ccc([14*])s1', '[9*]n1nc2c([16*])c(F)c(F)c([16*])c2n1', '[14*]c1cc2c([16*])c3sc(C)cc3c([16*])c2s1', '.', '[7*]C(C#N)C#N', '[7*]C1C(=O)c2cc(F)c(F)cc2C1[7*]', '[7*]C[8*]', '[8*]CCCCCC', '[14*]c1cc2sc3c(c2s1)C(c1ccc([16*])cc1)(c1ccc([16*])cc1)c1cc2c(cc1-3)C(c1ccc([16*])cc1)(c1ccc([16*])cc1)c1c-2sc2cc([14*])sc12']","[0, 0, 0, 0, 0, 17, 6, 18, 7, 19, 9, 1, 10, 42, 12, 13, 15]"
2TC-TT-BDTFT,m-ITIC,-5.45,-3.5,-5.526666666666667,-3.8515384615384622,1.0,o-DCB,_,120.0,PEDOT:PSS,PDINO,9.65,9.59,1.06,59.31,"['[3*]O[3*]', '[4*]CC(CCCC)CCCCCC', '[1*]C([6*])=O', '[8*]CC(CC)CCCC', '[14*]c1sc(C)cc1[16*]', '[14*]c1cc(F)c([14*])s1', '[14*]c1cc([16*])c([14*])s1', '[14*]c1cc2sc([14*])cc2s1', '[14*]c1cc2c([16*])c3sc(C)cc3c([16*])c2s1']","['[7*]C(C#N)C#N', '[7*]C1C(=O)c2ccccc2C1[7*]', '[7*]C[8*]', '[8*]CCCCCC', '[14*]c1cc2sc3c(c2s1)C(c1cccc([16*])c1)(c1cccc([16*])c1)c1cc2c(cc1-3)C(c1cccc([16*])c1)(c1cccc([16*])c1)c1c-2sc2cc([14*])sc12']","['[3*]O[3*]', '[4*]CC(CCCC)CCCCCC', '[1*]C([6*])=O', '[8*]CC(CC)CCCC', '[14*]c1sc(C)cc1[16*]', '[14*]c1cc(F)c([14*])s1', '[14*]c1cc([16*])c([14*])s1', '[14*]c1cc2sc([14*])cc2s1', '[14*]c1cc2c([16*])c3sc(C)cc3c([16*])c2s1', '.', '[7*]C(C#N)C#N', '[7*]C1C(=O)c2ccccc2C1[7*]', '[7*]C[8*]', '[8*]CCCCCC', '[14*]c1cc2sc3c(c2s1)C(c1cccc([16*])c1)(c1cccc([16*])c1)c1cc2c(cc1-3)C(c1cccc([16*])c1)(c1cccc([16*])c1)c1c-2sc2cc([14*])sc12']","[0, 0, 2, 33, 4, 5, 103, 24, 34, 225, 9, 1, 10, 11, 12, 13, 48]"
PTB7-Th,ACS8,-5.204782608695651,-3.5391891891891896,-5.54,-4.05,0.5,Toluene,_,25.0,MoOx,PFN,9.9,9.92,0.75,58.8,"['[3*]O[3*]', '[4*]CC(CC)CCCC', '[1*]C([6*])=O', '[8*]CC(CC)CCCC', '[14*]c1sc2c([14*])sc(C)c2c1F', '[14*]c1ccc([14*])s1', '[14*]c1cc2c([16*])c3sc(C)cc3c([16*])c2s1']","['[4*]CC(CC)CCCC', '[7*]C(C#N)C#N', '[7*]C1C(=O)c2cc(F)c(F)cc2C1[7*]', '[7*]C[8*]', '[8*]CCCCCC', '[11*]S[11*]', '[14*]c1cc([16*])c([14*])s1', '[14*]c1cc2c(s1)-c1cc3c(cc1C2(c1ccc([16*])cc1)c1ccc([16*])cc1)-c1sc([14*])cc1C3(c1ccc([16*])cc1)c1ccc([16*])cc1']","['[3*]O[3*]', '[4*]CC(CC)CCCC', '[1*]C([6*])=O', '[8*]CC(CC)CCCC', '[14*]c1sc2c([14*])sc(C)c2c1F', '[14*]c1ccc([14*])s1', '[14*]c1cc2c([16*])c3sc(C)cc3c([16*])c2s1', '.', '[4*]CC(CC)CCCC', '[7*]C(C#N)C#N', '[7*]C1C(=O)c2cc(F)c(F)cc2C1[7*]', '[7*]C[8*]', '[8*]CCCCCC', '[11*]S[11*]', '[14*]c1cc([16*])c([14*])s1', '[14*]c1cc2c(s1)-c1cc3c(cc1C2(c1ccc([16*])cc1)c1ccc([16*])cc1)-c1sc([14*])cc1C3(c1ccc([16*])cc1)c1ccc([16*])cc1']","[0, 2, 3, 4, 5, 35, 7, 9, 1, 3, 10, 42, 12, 13, 25, 34, 38]"
PB24-3TDC,ITIC-Th,-5.36,-3.58,-5.673333333333334,-3.908888888888889,0.667,CB,DIO,25.0,PEDOT:PSS,C60-bissalt,10.3,10.3,0.902,68.0,"['[3*]O[3*]', '[4*]CC(CCCCCC)CCCCCCCC', '[1*]C([6*])=O', '[8*]CC(CC)CCCC', '[14*]c1sc(C)cc1[16*]', '[14*]c1ccc(C)s1', '[14*]c1cc([16*])c([14*])s1', '[14*]c1ccc([14*])s1', '[9*]n1nc2c([16*])c(F)c(F)c([16*])c2n1']","['[7*]C(C#N)C#N', '[7*]C1C(=O)c2ccccc2C1[7*]', '[7*]C[8*]', '[8*]CCCCCC', '[14*]c1ccc(C2(c3ccc([14*])s3)c3cc4c(cc3-c3sc5cc([14*])sc5c32)C(c2ccc([14*])s2)(c2ccc([14*])s2)c2c-4sc3cc([14*])sc23)s1']","['[3*]O[3*]', '[4*]CC(CCCCCC)CCCCCCCC', '[1*]C([6*])=O', '[8*]CC(CC)CCCC', '[14*]c1sc(C)cc1[16*]', '[14*]c1ccc(C)s1', '[14*]c1cc([16*])c([14*])s1', '[14*]c1ccc([14*])s1', '[9*]n1nc2c([16*])c(F)c(F)c([16*])c2n1', '.', '[7*]C(C#N)C#N', '[7*]C1C(=O)c2ccccc2C1[7*]', '[7*]C[8*]', '[8*]CCCCCC', '[14*]c1ccc(C2(c3ccc([14*])s3)c3cc4c(cc3-c3sc5cc([14*])sc5c32)C(c2ccc([14*])s2)(c2ccc([14*])s2)c2c-4sc3cc([14*])sc23)s1']","[0, 0, 2, 200, 4, 5, 103, 6, 34, 7, 19, 1, 10, 11, 12, 13, 67]"
PB68-3TDC,ITIC-Th,-5.41,-3.57,-5.673333333333334,-3.908888888888889,0.667,CB,DIO,25.0,PEDOT:PSS,C60-bissalt,7.88,7.88,0.994,65.0,"['[3*]O[3*]', '[4*]CC(CCCCCC)CCCCCCCC', '[1*]C([6*])=O', '[8*]CC(CCCCCC)CCCCCCCC', '[14*]c1sc(C)cc1[16*]', '[14*]c1ccc(C)s1', '[14*]c1cc([16*])c([14*])s1', '[14*]c1ccc([14*])s1', '[9*]n1nc2c([16*])c(F)c(F)c([16*])c2n1']","['[7*]C(C#N)C#N', '[7*]C1C(=O)c2ccccc2C1[7*]', '[7*]C[8*]', '[8*]CCCCCC', '[14*]c1ccc(C2(c3ccc([14*])s3)c3cc4c(cc3-c3sc5cc([14*])sc5c32)C(c2ccc([14*])s2)(c2ccc([14*])s2)c2c-4sc3cc([14*])sc23)s1']","['[3*]O[3*]', '[4*]CC(CCCCCC)CCCCCCCC', '[1*]C([6*])=O', '[8*]CC(CCCCCC)CCCCCCCC', '[14*]c1sc(C)cc1[16*]', '[14*]c1ccc(C)s1', '[14*]c1cc([16*])c([14*])s1', '[14*]c1ccc([14*])s1', '[9*]n1nc2c([16*])c(F)c(F)c([16*])c2n1', '.', '[7*]C(C#N)C#N', '[7*]C1C(=O)c2ccccc2C1[7*]', '[7*]C[8*]', '[8*]CCCCCC', '[14*]c1ccc(C2(c3ccc([14*])s3)c3cc4c(cc3-c3sc5cc([14*])sc5c32)C(c2ccc([14*])s2)(c2ccc([14*])s2)c2c-4sc3cc([14*])sc23)s1']","[0, 0, 2, 200, 4, 17, 103, 6, 34, 7, 19, 1, 10, 11, 12, 13, 67]"
PBDB-T,IDNO-IDT,-5.297714285714285,-3.4170000000000003,-5.45,-3.65,1.0,CB,_,140.0,PEDOT:PSS,Ca,1.1,0.94,1.03,34.47,"['[8*]CC(CC)CCCC', '[14*]c1ccc(C)s1', '[14*]c1ccc([14*])s1', '[14*]c1sc([14*])c2c1C(=O)c1c([14*])sc([14*])c1C2=O', '[14*]c1cc2c([16*])c3sc(C)cc3c([16*])c2s1']","['[8*]CCCCCC', '[16*]c1ccc2c(c1)N(CC)C(=O)C2=O', '[14*]c1cc2c(s1)-c1cc3c(cc1C2(c1ccc([16*])cc1)c1ccc([16*])cc1)-c1sc([14*])cc1C3(c1ccc([16*])cc1)c1ccc([16*])cc1']","['[8*]CC(CC)CCCC', '[14*]c1ccc(C)s1', '[14*]c1ccc([14*])s1', '[14*]c1sc([14*])c2c1C(=O)c1c([14*])sc([14*])c1C2=O', '[14*]c1cc2c([16*])c3sc(C)cc3c([16*])c2s1', '.', '[8*]CCCCCC', '[16*]c1ccc2c(c1)N(CC)C(=O)C2=O', '[14*]c1cc2c(s1)-c1cc3c(cc1C2(c1ccc([16*])cc1)c1ccc([16*])cc1)-c1sc([14*])cc1C3(c1ccc([16*])cc1)c1ccc([16*])cc1']","[0, 0, 0, 0, 0, 0, 0, 0, 5, 6, 7, 30, 9, 1, 13, 226, 38]"
PBDB-T,IM1-IDT,-5.297714285714285,-3.4170000000000003,-5.46,-4.02,0.667,CB,_,140.0,PEDOT:PSS,Ca,1.62,1.32,0.55,47.41,"['[8*]CC(CC)CCCC', '[14*]c1ccc(C)s1', '[14*]c1ccc([14*])s1', '[14*]c1sc([14*])c2c1C(=O)c1c([14*])sc([14*])c1C2=O', '[14*]c1cc2c([16*])c3sc(C)cc3c([16*])c2s1']","['[7*]C(C#N)C#N', '[8*]CCCCCC', '[7*]C1C(=O)N(CC)c2cc([16*])ccc21', '[14*]c1cc2c(s1)-c1cc3c(cc1C2(c1ccc([16*])cc1)c1ccc([16*])cc1)-c1sc([14*])cc1C3(c1ccc([16*])cc1)c1ccc([16*])cc1']","['[8*]CC(CC)CCCC', '[14*]c1ccc(C)s1', '[14*]c1ccc([14*])s1', '[14*]c1sc([14*])c2c1C(=O)c1c([14*])sc([14*])c1C2=O', '[14*]c1cc2c([16*])c3sc(C)cc3c([16*])c2s1', '.', '[7*]C(C#N)C#N', '[8*]CCCCCC', '[7*]C1C(=O)N(CC)c2cc([16*])ccc21', '[14*]c1cc2c(s1)-c1cc3c(cc1C2(c1ccc([16*])cc1)c1ccc([16*])cc1)-c1sc([14*])cc1C3(c1ccc([16*])cc1)c1ccc([16*])cc1']","[0, 0, 0, 0, 0, 0, 0, 5, 6, 7, 30, 9, 1, 10, 13, 227, 38]"
PBDB-T,ITAN-IDT,-5.297714285714285,-3.4170000000000003,-5.42,-3.69,1.5,CB,_,140.0,PEDOT:PSS,Ca,2.0,1.72,1.18,39.19,"['[8*]CC(CC)CCCC', '[14*]c1ccc(C)s1', '[14*]c1ccc([14*])s1', '[14*]c1sc([14*])c2c1C(=O)c1c([14*])sc([14*])c1C2=O', '[14*]c1cc2c([16*])c3sc(C)cc3c([16*])c2s1']","['[7*]C([8*])C#N', '[14*]c1cccs1', '[8*]CCCCCC', '[7*]C1C(=O)N(CC)c2cc([16*])ccc21', '[14*]c1cc2c(s1)-c1cc3c(cc1C2(c1ccc([16*])cc1)c1ccc([16*])cc1)-c1sc([14*])cc1C3(c1ccc([16*])cc1)c1ccc([16*])cc1']","['[8*]CC(CC)CCCC', '[14*]c1ccc(C)s1', '[14*]c1ccc([14*])s1', '[14*]c1sc([14*])c2c1C(=O)c1c([14*])sc([14*])c1C2=O', '[14*]c1cc2c([16*])c3sc(C)cc3c([16*])c2s1', '.', '[7*]C([8*])C#N', '[14*]c1cccs1', '[8*]CCCCCC', '[7*]C1C(=O)N(CC)c2cc([16*])ccc21', '[14*]c1cc2c(s1)-c1cc3c(cc1C2(c1ccc([16*])cc1)c1ccc([16*])cc1)-c1sc([14*])cc1C3(c1ccc([16*])cc1)c1ccc([16*])cc1']","[0, 0, 0, 0, 0, 0, 5, 6, 7, 30, 9, 1, 228, 87, 13, 227, 38]"
PBDT-3TCO,IT-4F,-5.5,-3.24,-5.66875,-4.060416666666667,1.0,CB,DIO,25.0,PEDOT:PSS,PFN-Br,11.52,11.56,0.88,62.7,"['[6*]C(=O)CC(CC)CCCC', '[8*]CC(CC)CCCC', '[14*]c1sc(C)cc1[16*]', '[14*]c1cc(F)c([14*])s1', '[14*]c1cc([16*])c([14*])s1', '[14*]c1ccc([14*])s1', '[14*]c1cc2c([16*])c3sc(C)cc3c([16*])c2s1']","['[7*]C(C#N)C#N', '[7*]C1C(=O)c2cc(F)c(F)cc2C1[7*]', '[7*]C[8*]', '[8*]CCCCCC', '[14*]c1cc2sc3c(c2s1)C(c1ccc([16*])cc1)(c1ccc([16*])cc1)c1cc2c(cc1-3)C(c1ccc([16*])cc1)(c1ccc([16*])cc1)c1c-2sc2cc([14*])sc12']","['[6*]C(=O)CC(CC)CCCC', '[8*]CC(CC)CCCC', '[14*]c1sc(C)cc1[16*]', '[14*]c1cc(F)c([14*])s1', '[14*]c1cc([16*])c([14*])s1', '[14*]c1ccc([14*])s1', '[14*]c1cc2c([16*])c3sc(C)cc3c([16*])c2s1', '.', '[7*]C(C#N)C#N', '[7*]C1C(=O)c2cc(F)c(F)cc2C1[7*]', '[7*]C[8*]', '[8*]CCCCCC', '[14*]c1cc2sc3c(c2s1)C(c1ccc([16*])cc1)(c1ccc([16*])cc1)c1cc2c(cc1-3)C(c1ccc([16*])cc1)(c1ccc([16*])cc1)c1c-2sc2cc([14*])sc12']","[0, 0, 0, 0, 99, 5, 103, 24, 34, 7, 9, 1, 10, 42, 12, 13, 15]"
PBDT-3T,IT-4F,-5.48,-3.21,-5.66875,-4.060416666666667,0.667,CB,DIO,25.0,PEDOT:PSS,PFN-Br,1.0,1.01,0.85,30.43,"['[8*]CC(CC)CCCC', '[14*]c1sc(C)cc1[16*]', '[14*]c1cc(F)c([14*])s1', '[14*]c1ccc([14*])s1', '[14*]c1cc([16*])c([14*])s1', '[14*]c1cc2c([16*])c3sc(C)cc3c([16*])c2s1']","['[7*]C(C#N)C#N', '[7*]C1C(=O)c2cc(F)c(F)cc2C1[7*]', '[7*]C[8*]', '[8*]CCCCCC', '[14*]c1cc2sc3c(c2s1)C(c1ccc([16*])cc1)(c1ccc([16*])cc1)c1cc2c(cc1-3)C(c1ccc([16*])cc1)(c1ccc([16*])cc1)c1c-2sc2cc([14*])sc12']","['[8*]CC(CC)CCCC', '[14*]c1sc(C)cc1[16*]', '[14*]c1cc(F)c([14*])s1', '[14*]c1ccc([14*])s1', '[14*]c1cc([16*])c([14*])s1', '[14*]c1cc2c([16*])c3sc(C)cc3c([16*])c2s1', '.', '[7*]C(C#N)C#N', '[7*]C1C(=O)c2cc(F)c(F)cc2C1[7*]', '[7*]C[8*]', '[8*]CCCCCC', '[14*]c1cc2sc3c(c2s1)C(c1ccc([16*])cc1)(c1ccc([16*])cc1)c1cc2c(cc1-3)C(c1ccc([16*])cc1)(c1ccc([16*])cc1)c1c-2sc2cc([14*])sc12']","[0, 0, 0, 0, 0, 5, 103, 24, 7, 34, 9, 1, 10, 42, 12, 13, 15]"
PTB7-Th,NFDTSB,-5.204782608695651,-3.5391891891891896,-5.56,-3.85,1.0,CF,_,25.0,PEDOT:PSS,PFN-Br,9.6,9.61,0.75,63.6,"['[3*]O[3*]', '[4*]CC(CC)CCCC', '[1*]C([6*])=O', '[8*]CC(CC)CCCC', '[14*]c1sc2c([14*])sc(C)c2c1F', '[14*]c1ccc([14*])s1', '[14*]c1cc2c([16*])c3sc(C)cc3c([16*])c2s1']","['[3*]OS[11*]', '[4*]CC(CCCC)CCCCCC', '[7*]C(C#N)C#N', '[7*]C1C(=O)c2cc(F)c(F)cc2C1[7*]', '[7*]C[8*]', '[14*]c1cc2c(s1)-c1sc3c([16*])c4c5c(sc4c([16*])c3c1[Si]2(CCCCCCCC)CCCCCCCC)-c1sc([14*])cc1[Si]5(CCCCCCCC)CCCCCCCC']","['[3*]O[3*]', '[4*]CC(CC)CCCC', '[1*]C([6*])=O', '[8*]CC(CC)CCCC', '[14*]c1sc2c([14*])sc(C)c2c1F', '[14*]c1ccc([14*])s1', '[14*]c1cc2c([16*])c3sc(C)cc3c([16*])c2s1', '.', '[3*]OS[11*]', '[4*]CC(CCCC)CCCCCC', '[7*]C(C#N)C#N', '[7*]C1C(=O)c2cc(F)c(F)cc2C1[7*]', '[7*]C[8*]', '[14*]c1cc2c(s1)-c1sc3c([16*])c4c5c(sc4c([16*])c3c1[Si]2(CCCCCCCC)CCCCCCCC)-c1sc([14*])cc1[Si]5(CCCCCCCC)CCCCCCCC']","[0, 0, 0, 2, 3, 4, 5, 35, 7, 9, 1, 32, 33, 10, 42, 12, 230]"
PBTIBDTT,ITIC-F,-5.47,-3.6,-5.619999999999999,-4.02,1.0,CB,_,25.0,PEDOT:PSS,ZnO,11.19,11.19,0.921,74.1,"['[8*]CC(CCCCCC)CCCCCCCC', '[8*]CC(CC)CCCC', '[8*]CCCCCCCCCC', '[14*]c1sc(C)cc1[16*]', '[14*]c1ccc([14*])s1', '[9*]n1c(=O)c2cc([14*])sc2c2sc([14*])cc2c1=O', '[14*]c1cc([16*])c([14*])s1', '[14*]c1cc2c([16*])c3sc(C)cc3c([16*])c2s1']","['[7*]C(C#N)C#N', '[7*]C1C(=O)c2cc(F)c(F)cc2C1[7*]', '[7*]C[8*]', '[8*]CCCCCC', '[14*]c1cc2sc3c(c2s1)C(c1ccc([16*])cc1)(c1ccc([16*])cc1)c1cc2c(cc1-3)C(c1ccc([16*])cc1)(c1ccc([16*])cc1)c1c-2sc2cc([14*])sc12']","['[8*]CC(CCCCCC)CCCCCCCC', '[8*]CC(CC)CCCC', '[8*]CCCCCCCCCC', '[14*]c1sc(C)cc1[16*]', '[14*]c1ccc([14*])s1', '[9*]n1c(=O)c2cc([14*])sc2c2sc([14*])cc2c1=O', '[14*]c1cc([16*])c([14*])s1', '[14*]c1cc2c([16*])c3sc(C)cc3c([16*])c2s1', '.', '[7*]C(C#N)C#N', '[7*]C1C(=O)c2cc(F)c(F)cc2C1[7*]', '[7*]C[8*]', '[8*]CCCCCC', '[14*]c1cc2sc3c(c2s1)C(c1ccc([16*])cc1)(c1ccc([16*])cc1)c1cc2c(cc1-3)C(c1ccc([16*])cc1)(c1ccc([16*])cc1)c1c-2sc2cc([14*])sc12']","[0, 0, 0, 17, 5, 231, 103, 7, 232, 34, 9, 1, 10, 42, 12, 13, 15]"
PBDB-T,DTNIF,-5.297714285714285,-3.4170000000000003,-5.82,-3.92,1.0,CB,_,25.0,MoOx,ZnO,8.73,8.68,0.9,72.77,"['[8*]CC(CC)CCCC', '[14*]c1ccc(C)s1', '[14*]c1ccc([14*])s1', '[14*]c1sc([14*])c2c1C(=O)c1c([14*])sc([14*])c1C2=O', '[14*]c1cc2c([16*])c3sc(C)cc3c([16*])c2s1']","['[7*]C(C#N)C#N', '[7*]C1C(=O)c2cc(F)ccc2C1[7*]', '[7*]C[8*]', '[14*]c1cc2c(s1)-c1c(ccc3c4c(ccc13)C(CC(CC)CCCC)(CC(CC)CCCC)c1cc([14*])sc1-4)C2(CC(CC)CCCC)CC(CC)CCCC']","['[8*]CC(CC)CCCC', '[14*]c1ccc(C)s1', '[14*]c1ccc([14*])s1', '[14*]c1sc([14*])c2c1C(=O)c1c([14*])sc([14*])c1C2=O', '[14*]c1cc2c([16*])c3sc(C)cc3c([16*])c2s1', '.', '[7*]C(C#N)C#N', '[7*]C1C(=O)c2cc(F)ccc2C1[7*]', '[7*]C[8*]', '[14*]c1cc2c(s1)-c1c(ccc3c4c(ccc13)C(CC(CC)CCCC)(CC(CC)CCCC)c1cc([14*])sc1-4)C2(CC(CC)CCCC)CC(CC)CCCC']","[0, 0, 0, 0, 0, 0, 0, 5, 6, 7, 30, 9, 1, 10, 68, 12, 160]"
PBDB-T,DTNSF,-5.297714285714285,-3.4170000000000003,-5.52,-4.0,1.0,CB,_,25.0,MoOx,ZnO,7.15,7.28,0.92,54.62,"['[8*]CC(CC)CCCC', '[14*]c1ccc(C)s1', '[14*]c1ccc([14*])s1', '[14*]c1sc([14*])c2c1C(=O)c1c([14*])sc([14*])c1C2=O', '[14*]c1cc2c([16*])c3sc(C)cc3c([16*])c2s1']","['[7*]C(C#N)C#N', '[7*]C1C(=O)c2cc(F)ccc2C1[7*]', '[7*]C[8*]', '[14*]c1ccc([14*])s1', '[14*]c1cc2c(s1)-c1c(ccc3c4c(ccc13)C(CC(CC)CCCC)(CC(CC)CCCC)c1cc([14*])sc1-4)C2(CC(CC)CCCC)CC(CC)CCCC']","['[8*]CC(CC)CCCC', '[14*]c1ccc(C)s1', '[14*]c1ccc([14*])s1', '[14*]c1sc([14*])c2c1C(=O)c1c([14*])sc([14*])c1C2=O', '[14*]c1cc2c([16*])c3sc(C)cc3c([16*])c2s1', '.', '[7*]C(C#N)C#N', '[7*]C1C(=O)c2cc(F)ccc2C1[7*]', '[7*]C[8*]', '[14*]c1ccc([14*])s1', '[14*]c1cc2c(s1)-c1c(ccc3c4c(ccc13)C(CC(CC)CCCC)(CC(CC)CCCC)c1cc([14*])sc1-4)C2(CC(CC)CCCC)CC(CC)CCCC']","[0, 0, 0, 0, 0, 0, 5, 6, 7, 30, 9, 1, 10, 68, 12, 7, 160]"
PBTIBDTT,Si4TIC-F,-5.47,-3.6,-5.58,-4.21,0.667,CB,CN,25.0,PEDOT:PSS,PDIN,10.2,10.2,0.78,69.4,"['[8*]CC(CCCCCC)CCCCCCCC', '[8*]CC(CC)CCCC', '[8*]CCCCCCCCCC', '[14*]c1sc(C)cc1[16*]', '[14*]c1ccc([14*])s1', '[9*]n1c(=O)c2cc([14*])sc2c2sc([14*])cc2c1=O', '[14*]c1cc([16*])c([14*])s1', '[14*]c1cc2c([16*])c3sc(C)cc3c([16*])c2s1']","['[7*]C(C#N)C#N', '[7*]C1C(=O)c2cc(F)ccc2C1[7*]', '[7*]C[8*]', '[14*]c1cc2c(s1)-c1sc3c4c(sc3c1[Si]2(CCCCCC)CCCCCC)-c1sc([14*])cc1[Si]4(CCCCCC)CCCCCC']","['[8*]CC(CCCCCC)CCCCCCCC', '[8*]CC(CC)CCCC', '[8*]CCCCCCCCCC', '[14*]c1sc(C)cc1[16*]', '[14*]c1ccc([14*])s1', '[9*]n1c(=O)c2cc([14*])sc2c2sc([14*])cc2c1=O', '[14*]c1cc([16*])c([14*])s1', '[14*]c1cc2c([16*])c3sc(C)cc3c([16*])c2s1', '.', '[7*]C(C#N)C#N', '[7*]C1C(=O)c2cc(F)ccc2C1[7*]', '[7*]C[8*]', '[14*]c1cc2c(s1)-c1sc3c4c(sc3c1[Si]2(CCCCCC)CCCCCC)-c1sc([14*])cc1[Si]4(CCCCCC)CCCCCC']","[0, 0, 0, 0, 17, 5, 231, 103, 7, 232, 34, 9, 1, 10, 68, 12, 233]"