Donor,Acceptor,HOMO_D_eV,LUMO_D_eV,HOMO_A_eV,LUMO_A_eV,D_A_ratio_m_m,solvent,solvent_additive,annealing_temperature,hole_contact_layer,electron_contact_layer,PCE_percent,calc_PCE_percent,Voc_V,FF_percent,Donor_BRICS,Acceptor_BRICS,DA_pair_BRICS,DA_tokenized_BRICS
PBDB-T,IDT-EDOT,-5.297714285714285,-3.4170000000000003,-5.43,-3.8,0.833,o-DCB,DIO,25.0,MoOx,ZnO,11.32,11.38,0.86,62.0,"[<rdkit.Chem.rdchem.Mol object at 0x7f5838d9bbc0>, <rdkit.Chem.rdchem.Mol object at 0x7f5838da63b0>, <rdkit.Chem.rdchem.Mol object at 0x7f5838da6030>, <rdkit.Chem.rdchem.Mol object at 0x7f5838da5e70>, <rdkit.Chem.rdchem.Mol object at 0x7f5838da4270>]","[<rdkit.Chem.rdchem.Mol object at 0x7f5838d9bd10>, <rdkit.Chem.rdchem.Mol object at 0x7f5838da4eb0>, <rdkit.Chem.rdchem.Mol object at 0x7f5838d9a7a0>, <rdkit.Chem.rdchem.Mol object at 0x7f5838da5cb0>, <rdkit.Chem.rdchem.Mol object at 0x7f5838da6490>, <rdkit.Chem.rdchem.Mol object at 0x7f5838da5150>]","[<rdkit.Chem.rdchem.Mol object at 0x7f5838d9bbc0>, <rdkit.Chem.rdchem.Mol object at 0x7f5838da63b0>, <rdkit.Chem.rdchem.Mol object at 0x7f5838da6030>, <rdkit.Chem.rdchem.Mol object at 0x7f5838da5e70>, <rdkit.Chem.rdchem.Mol object at 0x7f5838da4270>, '.', <rdkit.Chem.rdchem.Mol object at 0x7f5838d9bd10>, <rdkit.Chem.rdchem.Mol object at 0x7f5838da4eb0>, <rdkit.Chem.rdchem.Mol object at 0x7f5838d9a7a0>, <rdkit.Chem.rdchem.Mol object at 0x7f5838da5cb0>, <rdkit.Chem.rdchem.Mol object at 0x7f5838da6490>, <rdkit.Chem.rdchem.Mol object at 0x7f5838da5150>]","[0, 0, 0, 0, 0, 2243, 2244, 2245, 2246, 2247, 1, 2248, 2249, 2250, 2251, 2252, 2253]"
PBDB-T,IDT-PDOT,-5.297714285714285,-3.4170000000000003,-5.39,-3.77,2.0,o-DCB,_,25.0,MoOx,ZnO,2.18,2.19,0.85,48.9,"[<rdkit.Chem.rdchem.Mol object at 0x7f5838d9b920>, <rdkit.Chem.rdchem.Mol object at 0x7f5838da5230>, <rdkit.Chem.rdchem.Mol object at 0x7f5838da5a80>, <rdkit.Chem.rdchem.Mol object at 0x7f5838da4d60>, <rdkit.Chem.rdchem.Mol object at 0x7f5838da4ac0>]","[<rdkit.Chem.rdchem.Mol object at 0x7f5838da6880>, <rdkit.Chem.rdchem.Mol object at 0x7f5838da6500>, <rdkit.Chem.rdchem.Mol object at 0x7f5838d9b450>, <rdkit.Chem.rdchem.Mol object at 0x7f5838da45f0>, <rdkit.Chem.rdchem.Mol object at 0x7f5838da5fc0>, <rdkit.Chem.rdchem.Mol object at 0x7f5838da4f90>]","[<rdkit.Chem.rdchem.Mol object at 0x7f5838d9b920>, <rdkit.Chem.rdchem.Mol object at 0x7f5838da5230>, <rdkit.Chem.rdchem.Mol object at 0x7f5838da5a80>, <rdkit.Chem.rdchem.Mol object at 0x7f5838da4d60>, <rdkit.Chem.rdchem.Mol object at 0x7f5838da4ac0>, '.', <rdkit.Chem.rdchem.Mol object at 0x7f5838da6880>, <rdkit.Chem.rdchem.Mol object at 0x7f5838da6500>, <rdkit.Chem.rdchem.Mol object at 0x7f5838d9b450>, <rdkit.Chem.rdchem.Mol object at 0x7f5838da45f0>, <rdkit.Chem.rdchem.Mol object at 0x7f5838da5fc0>, <rdkit.Chem.rdchem.Mol object at 0x7f5838da4f90>]","[0, 0, 0, 0, 0, 2254, 2255, 2256, 2257, 2258, 1, 2259, 2260, 2261, 2262, 2263, 2264]"
PTB7-Th,p-IDTIDT-IC,-5.204782608695651,-3.5391891891891896,-5.42,-3.82,0.667,o-DCB,_,150.0,PEDOT:PSS,PDINO,6.48,6.47,0.94,47.5,"[<rdkit.Chem.rdchem.Mol object at 0x7f5838d9bca0>, <rdkit.Chem.rdchem.Mol object at 0x7f5838da4c10>, <rdkit.Chem.rdchem.Mol object at 0x7f5838da61f0>, <rdkit.Chem.rdchem.Mol object at 0x7f5838da59a0>, <rdkit.Chem.rdchem.Mol object at 0x7f5838da57e0>, <rdkit.Chem.rdchem.Mol object at 0x7f5838da6420>, <rdkit.Chem.rdchem.Mol object at 0x7f5838da54d0>]","[<rdkit.Chem.rdchem.Mol object at 0x7f5838da4dd0>, <rdkit.Chem.rdchem.Mol object at 0x7f5838da6110>, <rdkit.Chem.rdchem.Mol object at 0x7f5838da5b60>, <rdkit.Chem.rdchem.Mol object at 0x7f5838da6180>, <rdkit.Chem.rdchem.Mol object at 0x7f5838db5c40>]","[<rdkit.Chem.rdchem.Mol object at 0x7f5838d9bca0>, <rdkit.Chem.rdchem.Mol object at 0x7f5838da4c10>, <rdkit.Chem.rdchem.Mol object at 0x7f5838da61f0>, <rdkit.Chem.rdchem.Mol object at 0x7f5838da59a0>, <rdkit.Chem.rdchem.Mol object at 0x7f5838da57e0>, <rdkit.Chem.rdchem.Mol object at 0x7f5838da6420>, <rdkit.Chem.rdchem.Mol object at 0x7f5838da54d0>, '.', <rdkit.Chem.rdchem.Mol object at 0x7f5838da4dd0>, <rdkit.Chem.rdchem.Mol object at 0x7f5838da6110>, <rdkit.Chem.rdchem.Mol object at 0x7f5838da5b60>, <rdkit.Chem.rdchem.Mol object at 0x7f5838da6180>, <rdkit.Chem.rdchem.Mol object at 0x7f5838db5c40>]","[0, 0, 0, 0, 2265, 2266, 2267, 2268, 2269, 2270, 2271, 1, 2272, 2273, 2274, 2275, 2276]"
PBDB-TF,IDT-C6,-5.497142857142857,-3.6428571428571423,-5.59,-3.35,1.0,CF,DIO,100.0,PEDOT:PSS,PFN-Br,12.5,12.43,0.96,74.0,"[<rdkit.Chem.rdchem.Mol object at 0x7f5838da76f0>, <rdkit.Chem.rdchem.Mol object at 0x7f5838da7b50>, <rdkit.Chem.rdchem.Mol object at 0x7f5838da7610>, <rdkit.Chem.rdchem.Mol object at 0x7f5838da65e0>, <rdkit.Chem.rdchem.Mol object at 0x7f5838da4040>, <rdkit.Chem.rdchem.Mol object at 0x7f5838da44a0>]","[<rdkit.Chem.rdchem.Mol object at 0x7f5838da69d0>, <rdkit.Chem.rdchem.Mol object at 0x7f5838da7450>, <rdkit.Chem.rdchem.Mol object at 0x7f5838da7140>, <rdkit.Chem.rdchem.Mol object at 0x7f5838da4200>]","[<rdkit.Chem.rdchem.Mol object at 0x7f5838da76f0>, <rdkit.Chem.rdchem.Mol object at 0x7f5838da7b50>, <rdkit.Chem.rdchem.Mol object at 0x7f5838da7610>, <rdkit.Chem.rdchem.Mol object at 0x7f5838da65e0>, <rdkit.Chem.rdchem.Mol object at 0x7f5838da4040>, <rdkit.Chem.rdchem.Mol object at 0x7f5838da44a0>, '.', <rdkit.Chem.rdchem.Mol object at 0x7f5838da69d0>, <rdkit.Chem.rdchem.Mol object at 0x7f5838da7450>, <rdkit.Chem.rdchem.Mol object at 0x7f5838da7140>, <rdkit.Chem.rdchem.Mol object at 0x7f5838da4200>]","[0, 0, 0, 0, 0, 0, 2277, 2278, 2279, 2280, 2281, 2282, 1, 2283, 2284, 2285, 2286]"
PBDB-TF,IDT-PhC6,-5.497142857142857,-3.6428571428571423,-5.56,-3.32,1.0,CF,DIO,100.0,PEDOT:PSS,PFN-Br,5.6,5.59,1.0,43.0,"[<rdkit.Chem.rdchem.Mol object at 0x7f5838da6ea0>, <rdkit.Chem.rdchem.Mol object at 0x7f5838da7920>, <rdkit.Chem.rdchem.Mol object at 0x7f5838da7bc0>, <rdkit.Chem.rdchem.Mol object at 0x7f5838da6810>, <rdkit.Chem.rdchem.Mol object at 0x7f5838da7760>, <rdkit.Chem.rdchem.Mol object at 0x7f5838da7220>]","[<rdkit.Chem.rdchem.Mol object at 0x7f5838da5380>, <rdkit.Chem.rdchem.Mol object at 0x7f5838da7c30>, <rdkit.Chem.rdchem.Mol object at 0x7f5838da5af0>, <rdkit.Chem.rdchem.Mol object at 0x7f5838da7f40>, <rdkit.Chem.rdchem.Mol object at 0x7f5838da6a40>]","[<rdkit.Chem.rdchem.Mol object at 0x7f5838da6ea0>, <rdkit.Chem.rdchem.Mol object at 0x7f5838da7920>, <rdkit.Chem.rdchem.Mol object at 0x7f5838da7bc0>, <rdkit.Chem.rdchem.Mol object at 0x7f5838da6810>, <rdkit.Chem.rdchem.Mol object at 0x7f5838da7760>, <rdkit.Chem.rdchem.Mol object at 0x7f5838da7220>, '.', <rdkit.Chem.rdchem.Mol object at 0x7f5838da5380>, <rdkit.Chem.rdchem.Mol object at 0x7f5838da7c30>, <rdkit.Chem.rdchem.Mol object at 0x7f5838da5af0>, <rdkit.Chem.rdchem.Mol object at 0x7f5838da7f40>, <rdkit.Chem.rdchem.Mol object at 0x7f5838da6a40>]","[0, 0, 0, 0, 0, 2287, 2288, 2289, 2290, 2291, 2292, 1, 2293, 2294, 2295, 2296, 2297]"
PBDB-T,FDNCTF,-5.297714285714285,-3.4170000000000003,-5.42,-3.73,1.25,CB,_,25.0,PEDOT:PSS,PDINO,10.0,9.8,0.94,66.0,"[<rdkit.Chem.rdchem.Mol object at 0x7f5838d9bdf0>, <rdkit.Chem.rdchem.Mol object at 0x7f5838da5700>, <rdkit.Chem.rdchem.Mol object at 0x7f5838da5e00>, <rdkit.Chem.rdchem.Mol object at 0x7f5838da7d10>, <rdkit.Chem.rdchem.Mol object at 0x7f5838da6ab0>]","[<rdkit.Chem.rdchem.Mol object at 0x7f5838da7ca0>, <rdkit.Chem.rdchem.Mol object at 0x7f5838da49e0>, <rdkit.Chem.rdchem.Mol object at 0x7f5838da43c0>, <rdkit.Chem.rdchem.Mol object at 0x7f5838da5690>]","[<rdkit.Chem.rdchem.Mol object at 0x7f5838d9bdf0>, <rdkit.Chem.rdchem.Mol object at 0x7f5838da5700>, <rdkit.Chem.rdchem.Mol object at 0x7f5838da5e00>, <rdkit.Chem.rdchem.Mol object at 0x7f5838da7d10>, <rdkit.Chem.rdchem.Mol object at 0x7f5838da6ab0>, '.', <rdkit.Chem.rdchem.Mol object at 0x7f5838da7ca0>, <rdkit.Chem.rdchem.Mol object at 0x7f5838da49e0>, <rdkit.Chem.rdchem.Mol object at 0x7f5838da43c0>, <rdkit.Chem.rdchem.Mol object at 0x7f5838da5690>]","[0, 0, 0, 0, 0, 0, 0, 2321, 2322, 2323, 2324, 2325, 1, 2326, 2327, 2328, 2329]"
PBDB-T,FDICTF,-5.297714285714285,-3.4170000000000003,-5.43,-3.71,1.25,CB,_,25.0,PEDOT:PSS,PDINO,11.2,10.99,0.93,72.5,"[<rdkit.Chem.rdchem.Mol object at 0x7f5838d9a730>, <rdkit.Chem.rdchem.Mol object at 0x7f5838da4430>, <rdkit.Chem.rdchem.Mol object at 0x7f5838da5ee0>, <rdkit.Chem.rdchem.Mol object at 0x7f5838da50e0>, <rdkit.Chem.rdchem.Mol object at 0x7f5838da5bd0>]","[<rdkit.Chem.rdchem.Mol object at 0x7f5838da5070>, <rdkit.Chem.rdchem.Mol object at 0x7f5838da4820>, <rdkit.Chem.rdchem.Mol object at 0x7f5838da66c0>, <rdkit.Chem.rdchem.Mol object at 0x7f5838da40b0>]","[<rdkit.Chem.rdchem.Mol object at 0x7f5838d9a730>, <rdkit.Chem.rdchem.Mol object at 0x7f5838da4430>, <rdkit.Chem.rdchem.Mol object at 0x7f5838da5ee0>, <rdkit.Chem.rdchem.Mol object at 0x7f5838da50e0>, <rdkit.Chem.rdchem.Mol object at 0x7f5838da5bd0>, '.', <rdkit.Chem.rdchem.Mol object at 0x7f5838da5070>, <rdkit.Chem.rdchem.Mol object at 0x7f5838da4820>, <rdkit.Chem.rdchem.Mol object at 0x7f5838da66c0>, <rdkit.Chem.rdchem.Mol object at 0x7f5838da40b0>]","[0, 0, 0, 0, 0, 0, 0, 2330, 2331, 2332, 2333, 2334, 1, 2335, 2336, 2337, 2338]"
PTB7-Th,DTNR,-5.204782608695651,-3.5391891891891896,-5.22,-3.5,0.667,CB,CN,25.0,MoOx,ZnO,9.51,9.51,1.08,56.0,"[<rdkit.Chem.rdchem.Mol object at 0x7f5838da5f50>, <rdkit.Chem.rdchem.Mol object at 0x7f5838da6c00>, <rdkit.Chem.rdchem.Mol object at 0x7f5838da60a0>, <rdkit.Chem.rdchem.Mol object at 0x7f5838da7df0>, <rdkit.Chem.rdchem.Mol object at 0x7f5838da5620>, <rdkit.Chem.rdchem.Mol object at 0x7f5838da7530>, <rdkit.Chem.rdchem.Mol object at 0x7f5838da4cf0>]","[<rdkit.Chem.rdchem.Mol object at 0x7f5838da4e40>, <rdkit.Chem.rdchem.Mol object at 0x7f5838da4a50>, <rdkit.Chem.rdchem.Mol object at 0x7f5838da4660>, <rdkit.Chem.rdchem.Mol object at 0x7f5838da4ba0>, <rdkit.Chem.rdchem.Mol object at 0x7f5838da46d0>]","[<rdkit.Chem.rdchem.Mol object at 0x7f5838da5f50>, <rdkit.Chem.rdchem.Mol object at 0x7f5838da6c00>, <rdkit.Chem.rdchem.Mol object at 0x7f5838da60a0>, <rdkit.Chem.rdchem.Mol object at 0x7f5838da7df0>, <rdkit.Chem.rdchem.Mol object at 0x7f5838da5620>, <rdkit.Chem.rdchem.Mol object at 0x7f5838da7530>, <rdkit.Chem.rdchem.Mol object at 0x7f5838da4cf0>, '.', <rdkit.Chem.rdchem.Mol object at 0x7f5838da4e40>, <rdkit.Chem.rdchem.Mol object at 0x7f5838da4a50>, <rdkit.Chem.rdchem.Mol object at 0x7f5838da4660>, <rdkit.Chem.rdchem.Mol object at 0x7f5838da4ba0>, <rdkit.Chem.rdchem.Mol object at 0x7f5838da46d0>]","[0, 0, 0, 0, 2339, 2340, 2341, 2342, 2343, 2344, 2345, 1, 2346, 2347, 2348, 2349, 2350]"
PBDB-T,DTNIC6,-5.297714285714285,-3.4170000000000003,-5.87,-3.92,1.0,CB,_,25.0,MoOx,TiO2:TOPD,3.39,3.38,0.96,45.63,"[<rdkit.Chem.rdchem.Mol object at 0x7f5838da4190>, <rdkit.Chem.rdchem.Mol object at 0x7f5838da7a00>, <rdkit.Chem.rdchem.Mol object at 0x7f5838da6b90>, <rdkit.Chem.rdchem.Mol object at 0x7f5838da6b20>, <rdkit.Chem.rdchem.Mol object at 0x7f5838db5f50>]","[<rdkit.Chem.rdchem.Mol object at 0x7f5838da4f20>, <rdkit.Chem.rdchem.Mol object at 0x7f5838da62d0>, <rdkit.Chem.rdchem.Mol object at 0x7f5838da7840>, <rdkit.Chem.rdchem.Mol object at 0x7f5838da7e60>]","[<rdkit.Chem.rdchem.Mol object at 0x7f5838da4190>, <rdkit.Chem.rdchem.Mol object at 0x7f5838da7a00>, <rdkit.Chem.rdchem.Mol object at 0x7f5838da6b90>, <rdkit.Chem.rdchem.Mol object at 0x7f5838da6b20>, <rdkit.Chem.rdchem.Mol object at 0x7f5838db5f50>, '.', <rdkit.Chem.rdchem.Mol object at 0x7f5838da4f20>, <rdkit.Chem.rdchem.Mol object at 0x7f5838da62d0>, <rdkit.Chem.rdchem.Mol object at 0x7f5838da7840>, <rdkit.Chem.rdchem.Mol object at 0x7f5838da7e60>]","[0, 0, 0, 0, 0, 0, 0, 2351, 2352, 2353, 2354, 2355, 1, 2356, 2357, 2358, 2359]"
PBDB-T,DTNIC8,-5.297714285714285,-3.4170000000000003,-5.91,-3.93,1.0,CB,_,25.0,MoOx,TiO2:TOPD,9.03,9.03,0.96,72.84,"[<rdkit.Chem.rdchem.Mol object at 0x7f5838da7d80>, <rdkit.Chem.rdchem.Mol object at 0x7f5838da74c0>, <rdkit.Chem.rdchem.Mol object at 0x7f5838da4510>, <rdkit.Chem.rdchem.Mol object at 0x7f5838db5770>, <rdkit.Chem.rdchem.Mol object at 0x7f5838db5230>]","[<rdkit.Chem.rdchem.Mol object at 0x7f5838da7680>, <rdkit.Chem.rdchem.Mol object at 0x7f5838da4890>, <rdkit.Chem.rdchem.Mol object at 0x7f5838da6730>, <rdkit.Chem.rdchem.Mol object at 0x7f5838da7ed0>]","[<rdkit.Chem.rdchem.Mol object at 0x7f5838da7d80>, <rdkit.Chem.rdchem.Mol object at 0x7f5838da74c0>, <rdkit.Chem.rdchem.Mol object at 0x7f5838da4510>, <rdkit.Chem.rdchem.Mol object at 0x7f5838db5770>, <rdkit.Chem.rdchem.Mol object at 0x7f5838db5230>, '.', <rdkit.Chem.rdchem.Mol object at 0x7f5838da7680>, <rdkit.Chem.rdchem.Mol object at 0x7f5838da4890>, <rdkit.Chem.rdchem.Mol object at 0x7f5838da6730>, <rdkit.Chem.rdchem.Mol object at 0x7f5838da7ed0>]","[0, 0, 0, 0, 0, 0, 0, 2360, 2361, 2362, 2363, 2364, 1, 2365, 2366, 2367, 2368]"
PTB7-Th,DTCC-IC,-5.204782608695651,-3.5391891891891896,-5.5,-3.87,1.0,CF,CN,100.0,PEDOT:PSS,Ca,6.0,6.0,0.95,56.2,"[<rdkit.Chem.rdchem.Mol object at 0x7f5838da55b0>, <rdkit.Chem.rdchem.Mol object at 0x7f5838da4350>, <rdkit.Chem.rdchem.Mol object at 0x7f5838da6960>, <rdkit.Chem.rdchem.Mol object at 0x7f5838da6260>, <rdkit.Chem.rdchem.Mol object at 0x7f5838db5930>, <rdkit.Chem.rdchem.Mol object at 0x7f5838da42e0>, <rdkit.Chem.rdchem.Mol object at 0x7f5838db4cf0>]","[<rdkit.Chem.rdchem.Mol object at 0x7f5838da4900>, <rdkit.Chem.rdchem.Mol object at 0x7f5838da6e30>, <rdkit.Chem.rdchem.Mol object at 0x7f5838db5e00>, <rdkit.Chem.rdchem.Mol object at 0x7f5838da6570>, <rdkit.Chem.rdchem.Mol object at 0x7f5838db5bd0>, <rdkit.Chem.rdchem.Mol object at 0x7f5838db5070>, <rdkit.Chem.rdchem.Mol object at 0x7f5838db4e40>]","[<rdkit.Chem.rdchem.Mol object at 0x7f5838da55b0>, <rdkit.Chem.rdchem.Mol object at 0x7f5838da4350>, <rdkit.Chem.rdchem.Mol object at 0x7f5838da6960>, <rdkit.Chem.rdchem.Mol object at 0x7f5838da6260>, <rdkit.Chem.rdchem.Mol object at 0x7f5838db5930>, <rdkit.Chem.rdchem.Mol object at 0x7f5838da42e0>, <rdkit.Chem.rdchem.Mol object at 0x7f5838db4cf0>, '.', <rdkit.Chem.rdchem.Mol object at 0x7f5838da4900>, <rdkit.Chem.rdchem.Mol object at 0x7f5838da6e30>, <rdkit.Chem.rdchem.Mol object at 0x7f5838db5e00>, <rdkit.Chem.rdchem.Mol object at 0x7f5838da6570>, <rdkit.Chem.rdchem.Mol object at 0x7f5838db5bd0>, <rdkit.Chem.rdchem.Mol object at 0x7f5838db5070>, <rdkit.Chem.rdchem.Mol object at 0x7f5838db4e40>]","[0, 0, 2369, 2370, 2371, 2372, 2373, 2374, 2375, 1, 2376, 2377, 2378, 2379, 2380, 2381, 2382]"
P3HT,DNIT-TT2T,-5.057777777777777,-2.989444444444445,-5.94,-3.75,1.0,o-DCB,_,130.0,PEDOT:PSS,Ca,1.25,1.25,0.88,43.47,"[<rdkit.Chem.rdchem.Mol object at 0x7f5838da4580>, <rdkit.Chem.rdchem.Mol object at 0x7f5838da6340>, <rdkit.Chem.rdchem.Mol object at 0x7f5838db4820>, <rdkit.Chem.rdchem.Mol object at 0x7f5838db5460>]","[<rdkit.Chem.rdchem.Mol object at 0x7f5838da6ff0>, <rdkit.Chem.rdchem.Mol object at 0x7f5838db45f0>, <rdkit.Chem.rdchem.Mol object at 0x7f5838db5310>, <rdkit.Chem.rdchem.Mol object at 0x7f5838db5850>, <rdkit.Chem.rdchem.Mol object at 0x7f5838db4a50>]","[<rdkit.Chem.rdchem.Mol object at 0x7f5838da4580>, <rdkit.Chem.rdchem.Mol object at 0x7f5838da6340>, <rdkit.Chem.rdchem.Mol object at 0x7f5838db4820>, <rdkit.Chem.rdchem.Mol object at 0x7f5838db5460>, '.', <rdkit.Chem.rdchem.Mol object at 0x7f5838da6ff0>, <rdkit.Chem.rdchem.Mol object at 0x7f5838db45f0>, <rdkit.Chem.rdchem.Mol object at 0x7f5838db5310>, <rdkit.Chem.rdchem.Mol object at 0x7f5838db5850>, <rdkit.Chem.rdchem.Mol object at 0x7f5838db4a50>]","[0, 0, 0, 0, 0, 0, 0, 2383, 2384, 2385, 2386, 1, 2387, 2388, 2389, 2390, 2391]"
PTB7-Th,DICTF,-5.204782608695651,-3.5391891891891896,-5.67,-3.79,0.714,CF,_,100.0,PEDOT:PSS,PDIN,7.63,7.63,0.85,55.0,"[<rdkit.Chem.rdchem.Mol object at 0x7f5838db4d60>, <rdkit.Chem.rdchem.Mol object at 0x7f5838db4580>, <rdkit.Chem.rdchem.Mol object at 0x7f5838db52a0>, <rdkit.Chem.rdchem.Mol object at 0x7f5838db4900>, <rdkit.Chem.rdchem.Mol object at 0x7f5838db5380>, <rdkit.Chem.rdchem.Mol object at 0x7f5838db54d0>, <rdkit.Chem.rdchem.Mol object at 0x7f5838db50e0>]","[<rdkit.Chem.rdchem.Mol object at 0x7f5838db4ba0>, <rdkit.Chem.rdchem.Mol object at 0x7f5838db4660>, <rdkit.Chem.rdchem.Mol object at 0x7f5838db5cb0>, <rdkit.Chem.rdchem.Mol object at 0x7f5838db4c80>, <rdkit.Chem.rdchem.Mol object at 0x7f5838db5700>]","[<rdkit.Chem.rdchem.Mol object at 0x7f5838db4d60>, <rdkit.Chem.rdchem.Mol object at 0x7f5838db4580>, <rdkit.Chem.rdchem.Mol object at 0x7f5838db52a0>, <rdkit.Chem.rdchem.Mol object at 0x7f5838db4900>, <rdkit.Chem.rdchem.Mol object at 0x7f5838db5380>, <rdkit.Chem.rdchem.Mol object at 0x7f5838db54d0>, <rdkit.Chem.rdchem.Mol object at 0x7f5838db50e0>, '.', <rdkit.Chem.rdchem.Mol object at 0x7f5838db4ba0>, <rdkit.Chem.rdchem.Mol object at 0x7f5838db4660>, <rdkit.Chem.rdchem.Mol object at 0x7f5838db5cb0>, <rdkit.Chem.rdchem.Mol object at 0x7f5838db4c80>, <rdkit.Chem.rdchem.Mol object at 0x7f5838db5700>]","[0, 0, 0, 0, 2392, 2393, 2394, 2395, 2396, 2397, 2398, 1, 2399, 2400, 2401, 2402, 2403]"
P1_BDT-TBT,PY1,-5.1,-3.48,-5.27,-4.0,0.5,CF,DIO,25.0,PEDOT:PSS,PFN-Br,4.89,4.89,0.83,56.0,"[<rdkit.Chem.rdchem.Mol object at 0x7f5838db55b0>, <rdkit.Chem.rdchem.Mol object at 0x7f5838db59a0>, <rdkit.Chem.rdchem.Mol object at 0x7f5838db5e70>, <rdkit.Chem.rdchem.Mol object at 0x7f5838db5b60>, <rdkit.Chem.rdchem.Mol object at 0x7f5838db5690>, <rdkit.Chem.rdchem.Mol object at 0x7f5838db6030>]","[<rdkit.Chem.rdchem.Mol object at 0x7f5838db5d90>, <rdkit.Chem.rdchem.Mol object at 0x7f5838db40b0>, <rdkit.Chem.rdchem.Mol object at 0x7f5838db5af0>, <rdkit.Chem.rdchem.Mol object at 0x7f5838db5d20>, <rdkit.Chem.rdchem.Mol object at 0x7f5838db4f20>, <rdkit.Chem.rdchem.Mol object at 0x7f5838db71b0>, <rdkit.Chem.rdchem.Mol object at 0x7f5838db7450>]","[<rdkit.Chem.rdchem.Mol object at 0x7f5838db55b0>, <rdkit.Chem.rdchem.Mol object at 0x7f5838db59a0>, <rdkit.Chem.rdchem.Mol object at 0x7f5838db5e70>, <rdkit.Chem.rdchem.Mol object at 0x7f5838db5b60>, <rdkit.Chem.rdchem.Mol object at 0x7f5838db5690>, <rdkit.Chem.rdchem.Mol object at 0x7f5838db6030>, '.', <rdkit.Chem.rdchem.Mol object at 0x7f5838db5d90>, <rdkit.Chem.rdchem.Mol object at 0x7f5838db40b0>, <rdkit.Chem.rdchem.Mol object at 0x7f5838db5af0>, <rdkit.Chem.rdchem.Mol object at 0x7f5838db5d20>, <rdkit.Chem.rdchem.Mol object at 0x7f5838db4f20>, <rdkit.Chem.rdchem.Mol object at 0x7f5838db71b0>, <rdkit.Chem.rdchem.Mol object at 0x7f5838db7450>]","[0, 0, 0, 2404, 2405, 2406, 2407, 2408, 2409, 1, 2410, 2411, 2412, 2413, 2414, 2415, 2416]"
P1_BDT-TBT,DCI-2,-5.1,-3.48,-5.24,-4.05,0.5,CF,DIO,25.0,PEDOT:PSS,PFN-Br,6.94,6.94,0.8,63.0,"[<rdkit.Chem.rdchem.Mol object at 0x7f5838db7990>, <rdkit.Chem.rdchem.Mol object at 0x7f5838db7ae0>, <rdkit.Chem.rdchem.Mol object at 0x7f5838db77d0>, <rdkit.Chem.rdchem.Mol object at 0x7f5838db73e0>, <rdkit.Chem.rdchem.Mol object at 0x7f5838db7530>, <rdkit.Chem.rdchem.Mol object at 0x7f5838db7140>]","[<rdkit.Chem.rdchem.Mol object at 0x7f5838db7300>, <rdkit.Chem.rdchem.Mol object at 0x7f5838db6dc0>, <rdkit.Chem.rdchem.Mol object at 0x7f5838db7220>, <rdkit.Chem.rdchem.Mol object at 0x7f5838db6ea0>, <rdkit.Chem.rdchem.Mol object at 0x7f5838db6f10>, <rdkit.Chem.rdchem.Mol object at 0x7f5838db7840>, <rdkit.Chem.rdchem.Mol object at 0x7f5838db7b50>]","[<rdkit.Chem.rdchem.Mol object at 0x7f5838db7990>, <rdkit.Chem.rdchem.Mol object at 0x7f5838db7ae0>, <rdkit.Chem.rdchem.Mol object at 0x7f5838db77d0>, <rdkit.Chem.rdchem.Mol object at 0x7f5838db73e0>, <rdkit.Chem.rdchem.Mol object at 0x7f5838db7530>, <rdkit.Chem.rdchem.Mol object at 0x7f5838db7140>, '.', <rdkit.Chem.rdchem.Mol object at 0x7f5838db7300>, <rdkit.Chem.rdchem.Mol object at 0x7f5838db6dc0>, <rdkit.Chem.rdchem.Mol object at 0x7f5838db7220>, <rdkit.Chem.rdchem.Mol object at 0x7f5838db6ea0>, <rdkit.Chem.rdchem.Mol object at 0x7f5838db6f10>, <rdkit.Chem.rdchem.Mol object at 0x7f5838db7840>, <rdkit.Chem.rdchem.Mol object at 0x7f5838db7b50>]","[0, 0, 0, 2417, 2418, 2419, 2420, 2421, 2422, 1, 2423, 2424, 2425, 2426, 2427, 2428, 2429]"