Donor,Acceptor,HOMO_D_eV,LUMO_D_eV,HOMO_A_eV,LUMO_A_eV,D_A_ratio_m_m,solvent,total_solids_conc_mg_mL,solvent_additive,annealing_temperature,hole_contact_layer,electron_contact_layer,PCE_percent,calc_PCE_percent,Voc_V,FF_percent,Donor_BRICS,Acceptor_BRICS,DA_pair_BRICS,DA_tokenized_BRICS
PBZ,IT-4F,-5.18,-3.22,-5.66875,-4.060416666666667,1.0,Toluene,20.0,PN,25,MoOx,ZnO,6.4,6.45,0.6,63.2,"['CCCCCCCCC(C)CCCCCC', 'CCCCC(C)CC', 'c1ccsc1', 'Cc1cccs1', 'Fc1cc2nnnc2cc1F', 'Cc1cc2cc3sccc3cc2s1']","['N#CCC#N', 'O=C1CCc2cc(F)c(F)cc21', 'C', 'CCCCCC', 'c1ccc(C2(c3ccccc3)c3cc4c(cc3-c3sc5ccsc5c32)C(c2ccccc2)(c2ccccc2)c2c-4sc3ccsc23)cc1']","['CCCCCCCCC(C)CCCCCC', 'CCCCC(C)CC', 'c1ccsc1', 'Cc1cccs1', 'Fc1cc2nnnc2cc1F', 'Cc1cc2cc3sccc3cc2s1', '.', 'N#CCC#N', 'O=C1CCc2cc(F)c(F)cc21', 'C', 'CCCCCC', 'c1ccc(C2(c3ccccc3)c3cc4c(cc3-c3sc5ccsc5c32)C(c2ccccc2)(c2ccccc2)c2c-4sc3ccsc23)cc1']","[0, 0, 0, 0, 0, 16, 3, 6, 5, 18, 8, 1, 9, 39, 11, 12, 14]"
PBZ-Cl,IT-4F,-5.39,-3.41,-5.66875,-4.060416666666667,1.0,Toluene,20.0,PN,25,MoOx,ZnO,9.7,9.67,0.8,68.3,"['CCCCCCCCC(C)CCCCCC', 'CCCCC(C)CC', 'Clc1ccsc1', 'Cc1cccs1', 'c1ccsc1', 'Fc1cc2nnnc2cc1F', 'Cc1cc2cc3sccc3cc2s1']","['N#CCC#N', 'O=C1CCc2cc(F)c(F)cc21', 'C', 'CCCCCC', 'c1ccc(C2(c3ccccc3)c3cc4c(cc3-c3sc5ccsc5c32)C(c2ccccc2)(c2ccccc2)c2c-4sc3ccsc23)cc1']","['CCCCCCCCC(C)CCCCCC', 'CCCCC(C)CC', 'Clc1ccsc1', 'Cc1cccs1', 'c1ccsc1', 'Fc1cc2nnnc2cc1F', 'Cc1cc2cc3sccc3cc2s1', '.', 'N#CCC#N', 'O=C1CCc2cc(F)c(F)cc21', 'C', 'CCCCCC', 'c1ccc(C2(c3ccccc3)c3cc4c(cc3-c3sc5ccsc5c32)C(c2ccccc2)(c2ccccc2)c2c-4sc3ccsc23)cc1']","[0, 0, 0, 0, 16, 3, 160, 5, 6, 18, 8, 1, 9, 39, 11, 12, 14]"
PBZ-ClSi,IT-4F,-5.56,-3.5,-5.66875,-4.060416666666667,1.0,Toluene,20.0,PN,25,MoOx,ZnO,12.8,12.77,0.93,71.5,"['CCCCCCCCC(C)CCCCCC', 'Cc1cccs1', 'CCC[Si](CCC)(CCC)c1sccc1Cl', 'c1ccsc1', 'Fc1cc2nnnc2cc1F', 'Cc1cc2cc3sccc3cc2s1']","['N#CCC#N', 'O=C1CCc2cc(F)c(F)cc21', 'C', 'CCCCCC', 'c1ccc(C2(c3ccccc3)c3cc4c(cc3-c3sc5ccsc5c32)C(c2ccccc2)(c2ccccc2)c2c-4sc3ccsc23)cc1']","['CCCCCCCCC(C)CCCCCC', 'Cc1cccs1', 'CCC[Si](CCC)(CCC)c1sccc1Cl', 'c1ccsc1', 'Fc1cc2nnnc2cc1F', 'Cc1cc2cc3sccc3cc2s1', '.', 'N#CCC#N', 'O=C1CCc2cc(F)c(F)cc21', 'C', 'CCCCCC', 'c1ccc(C2(c3ccccc3)c3cc4c(cc3-c3sc5ccsc5c32)C(c2ccccc2)(c2ccccc2)c2c-4sc3ccsc23)cc1']","[0, 0, 0, 0, 0, 16, 5, 179, 6, 18, 8, 1, 9, 39, 11, 12, 14]"
PT1,ITIC,-5.46,-3.59,-5.57675,-3.918163265306122,0.667,CB,20.0,_,25,MoOx,ZnO,2.13,2.14,0.95,39.0,"['CCCCCCCC', 'CCCCC(C)CC', 'Cc1scc2c1C(=O)c1cscc1C2=O', 'c1ccsc1', 'Cc1cc2cc3sccc3cc2s1']","['N#CCC#N', 'O=C1CCc2ccccc21', 'C', 'CCCCCC', 'c1ccc(C2(c3ccccc3)c3cc4c(cc3-c3sc5ccsc5c32)C(c2ccccc2)(c2ccccc2)c2c-4sc3ccsc23)cc1']","['CCCCCCCC', 'CCCCC(C)CC', 'Cc1scc2c1C(=O)c1cscc1C2=O', 'c1ccsc1', 'Cc1cc2cc3sccc3cc2s1', '.', 'N#CCC#N', 'O=C1CCc2ccccc21', 'C', 'CCCCCC', 'c1ccc(C2(c3ccccc3)c3cc4c(cc3-c3sc5ccsc5c32)C(c2ccccc2)(c2ccccc2)c2c-4sc3ccsc23)cc1']","[0, 0, 0, 0, 0, 0, 20, 3, 180, 6, 8, 1, 9, 10, 11, 12, 14]"
PT3,ITIC,-5.37,-3.54,-5.57675,-3.918163265306122,0.667,CB,20.0,_,25,MoOx,ZnO,9.21,9.29,0.88,68.0,"['CCCCCCCC', 'CCCCC(C)CC', 'CCCCCC', 'Cc1cc2sccc2s1', 'c1ccsc1', 'O=C1c2cscc2C(=O)c2cscc21', 'c1cc2sccc2s1', 'Cc1cc2cc3sccc3cc2s1']","['N#CCC#N', 'O=C1CCc2ccccc21', 'C', 'CCCCCC', 'c1ccc(C2(c3ccccc3)c3cc4c(cc3-c3sc5ccsc5c32)C(c2ccccc2)(c2ccccc2)c2c-4sc3ccsc23)cc1']","['CCCCCCCC', 'CCCCC(C)CC', 'CCCCCC', 'Cc1cc2sccc2s1', 'c1ccsc1', 'O=C1c2cscc2C(=O)c2cscc21', 'c1cc2sccc2s1', 'Cc1cc2cc3sccc3cc2s1', '.', 'N#CCC#N', 'O=C1CCc2ccccc21', 'C', 'CCCCCC', 'c1ccc(C2(c3ccccc3)c3cc4c(cc3-c3sc5ccsc5c32)C(c2ccccc2)(c2ccccc2)c2c-4sc3ccsc23)cc1']","[0, 0, 0, 20, 3, 12, 149, 6, 29, 7, 8, 1, 9, 10, 11, 12, 14]"
PBDB-T,DF-TCIC,-5.297714285714285,-3.4170000000000003,-5.37,-3.76,0.833,CF,15.0,CN,140,MoOx,PFN,8.23,8.18,0.86,58.0,"['CCCCC(C)CC', 'Cc1cccs1', 'c1ccsc1', 'O=C1c2cscc2C(=O)c2cscc21', 'Cc1cc2cc3sccc3cc2s1']","['N#CCC#N', 'O=C1CCc2ccccc21', 'C', 'CCCCC(CC)CC1(CC(CC)CCCC)c2ccsc2-c2sccc21', 'Fc1cscc1F']","['CCCCC(C)CC', 'Cc1cccs1', 'c1ccsc1', 'O=C1c2cscc2C(=O)c2cscc21', 'Cc1cc2cc3sccc3cc2s1', '.', 'N#CCC#N', 'O=C1CCc2ccccc21', 'C', 'CCCCC(CC)CC1(CC(CC)CCCC)c2ccsc2-c2sccc21', 'Fc1cscc1F']","[0, 0, 0, 0, 0, 0, 3, 5, 6, 29, 8, 1, 9, 10, 11, 143, 68]"
PBDB-T,HF-TCIC,-5.297714285714285,-3.4170000000000003,-5.43,-3.83,0.833,CF,15.0,CN,120,MoOx,PFN,9.86,9.9,0.76,65.0,"['CCCCC(C)CC', 'Cc1cccs1', 'c1ccsc1', 'O=C1c2cscc2C(=O)c2cscc21', 'Cc1cc2cc3sccc3cc2s1']","['N#CCC#N', 'O=C1CCc2cc(F)c(F)cc21', 'C', 'CCCCC(CC)CC1(CC(CC)CCCC)c2ccsc2-c2sccc21', 'Fc1cscc1F']","['CCCCC(C)CC', 'Cc1cccs1', 'c1ccsc1', 'O=C1c2cscc2C(=O)c2cscc21', 'Cc1cc2cc3sccc3cc2s1', '.', 'N#CCC#N', 'O=C1CCc2cc(F)c(F)cc21', 'C', 'CCCCC(CC)CC1(CC(CC)CCCC)c2ccsc2-c2sccc21', 'Fc1cscc1F']","[0, 0, 0, 0, 0, 0, 3, 5, 6, 29, 8, 1, 9, 39, 11, 143, 68]"
BO2FEH,m-ITIC-OR-4Cl,-5.59,-3.59,-5.78,-4.05,0.667,CB,15.0,_,150,MoOx,ZnO,6.4,6.15,0.88,48.5,"['CCCCC(C)CC', 'O', 'CCCCC(C)CC', 'Fc1ccsc1', 'Cc1cccs1', 'c1ccsc1', 'c1ccc2nonc2c1', 'Cc1cc2cc3sccc3cc2s1']","['CCCCCC', 'O', 'N#CCC#N', 'O=C1CCc2cc(Cl)c(Cl)cc21', 'C', 'c1ccc(C2(c3ccccc3)c3cc4c(cc3-c3sc5ccsc5c32)C(c2ccccc2)(c2ccccc2)c2c-4sc3ccsc23)cc1']","['CCCCC(C)CC', 'O', 'CCCCC(C)CC', 'Fc1ccsc1', 'Cc1cccs1', 'c1ccsc1', 'c1ccc2nonc2c1', 'Cc1cc2cc3sccc3cc2s1', '.', 'CCCCCC', 'O', 'N#CCC#N', 'O=C1CCc2cc(Cl)c(Cl)cc21', 'C', 'c1ccc(C2(c3ccccc3)c3cc4c(cc3-c3sc5ccsc5c32)C(c2ccccc2)(c2ccccc2)c2c-4sc3ccsc23)cc1']","[0, 0, 3, 2, 3, 23, 5, 6, 181, 8, 1, 12, 2, 9, 38, 11, 14]"
PTB-EDOTS,ITIC-Th,-5.38,-3.69,-5.675000000000001,-3.90625,0.667,MeTHF,16.0,_,100,MoOx,ZnO,10.18,10.18,0.88,71.2,"['O', 'CCCCC(C)CC', 'C=O', 'S', 'Cc1scc2scc(F)c12', 'c1scc2c1OCCO2', 'Cc1cc2cc3sccc3cc2s1']","['N#CCC#N', 'O=C1CCc2ccccc21', 'C', 'CCCCCC', 'c1csc(C2(c3cccs3)c3cc4c(cc3-c3sc5ccsc5c32)C(c2cccs2)(c2cccs2)c2c-4sc3ccsc23)c1']","['O', 'CCCCC(C)CC', 'C=O', 'S', 'Cc1scc2scc(F)c12', 'c1scc2c1OCCO2', 'Cc1cc2cc3sccc3cc2s1', '.', 'N#CCC#N', 'O=C1CCc2ccccc21', 'C', 'CCCCCC', 'c1csc(C2(c3cccs3)c3cc4c(cc3-c3sc5ccsc5c32)C(c2cccs2)(c2cccs2)c2c-4sc3ccsc23)c1']","[0, 0, 0, 0, 2, 3, 4, 24, 33, 134, 8, 1, 9, 10, 11, 12, 59]"
POPB,IT-4F,-5.38,-3.57,-5.66875,-4.060416666666667,0.667,CB,20.0,DIO,25,MoOx,ZnO,6.2,6.19,0.72,51.2,"['CCCCCCCCC(C)CCCCCC', 'O', 'CCCCC(C)CC', 'Cc1cccs1', 'O=C1c2cscc2C(=O)c2cscc21', 'c1ccsc1', 'c1ccccc1', 'Cc1cc2cc3sccc3cc2s1']","['N#CCC#N', 'O=C1CCc2cc(F)c(F)cc21', 'C', 'CCCCCC', 'c1ccc(C2(c3ccccc3)c3cc4c(cc3-c3sc5ccsc5c32)C(c2ccccc2)(c2ccccc2)c2c-4sc3ccsc23)cc1']","['CCCCCCCCC(C)CCCCCC', 'O', 'CCCCC(C)CC', 'Cc1cccs1', 'O=C1c2cscc2C(=O)c2cscc21', 'c1ccsc1', 'c1ccccc1', 'Cc1cc2cc3sccc3cc2s1', '.', 'N#CCC#N', 'O=C1CCc2cc(F)c(F)cc21', 'C', 'CCCCCC', 'c1ccc(C2(c3ccccc3)c3cc4c(cc3-c3sc5ccsc5c32)C(c2ccccc2)(c2ccccc2)c2c-4sc3ccsc23)cc1']","[0, 0, 0, 16, 2, 3, 5, 29, 6, 56, 8, 1, 9, 39, 11, 12, 14]"
PFOPB,IT-4F,-5.5,-3.64,-5.66875,-4.060416666666667,0.667,CB,20.0,DIO,25,MoOx,ZnO,11.7,11.71,0.89,64.5,"['CCCCCCCCC(C)CCCCCC', 'O', 'CCCCC(C)CC', 'Cc1cccs1', 'O=C1c2cscc2C(=O)c2cscc21', 'c1ccsc1', 'Fc1cccc(F)c1', 'Cc1cc2cc3sccc3cc2s1']","['N#CCC#N', 'O=C1CCc2cc(F)c(F)cc21', 'C', 'CCCCCC', 'c1ccc(C2(c3ccccc3)c3cc4c(cc3-c3sc5ccsc5c32)C(c2ccccc2)(c2ccccc2)c2c-4sc3ccsc23)cc1']","['CCCCCCCCC(C)CCCCCC', 'O', 'CCCCC(C)CC', 'Cc1cccs1', 'O=C1c2cscc2C(=O)c2cscc21', 'c1ccsc1', 'Fc1cccc(F)c1', 'Cc1cc2cc3sccc3cc2s1', '.', 'N#CCC#N', 'O=C1CCc2cc(F)c(F)cc21', 'C', 'CCCCCC', 'c1ccc(C2(c3ccccc3)c3cc4c(cc3-c3sc5ccsc5c32)C(c2ccccc2)(c2ccccc2)c2c-4sc3ccsc23)cc1']","[0, 0, 0, 16, 2, 3, 5, 29, 6, 35, 8, 1, 9, 39, 11, 12, 14]"
PBDS-T,ITIC-F,-5.349999999999999,-3.67,-5.619999999999999,-4.02,1.0,CB,20.0,DIO,25,MoOx,ZnO,11.19,11.19,0.9,66.7,"['CCCCC(C)CC', 'C1CCSC1', 'Cc1cccs1', 'O=C1c2cscc2C(=O)C2CSCC12', 'CCC[Si](CCC)(CCC)c1cccs1', 'Cc1cc2cc3sccc3cc2s1']","['N#CCC#N', 'O=C1CCc2cc(F)c(F)cc21', 'C', 'CCCCCC', 'c1ccc(C2(c3ccccc3)c3cc4c(cc3-c3sc5ccsc5c32)C(c2ccccc2)(c2ccccc2)c2c-4sc3ccsc23)cc1']","['CCCCC(C)CC', 'C1CCSC1', 'Cc1cccs1', 'O=C1c2cscc2C(=O)C2CSCC12', 'CCC[Si](CCC)(CCC)c1cccs1', 'Cc1cc2cc3sccc3cc2s1', '.', 'N#CCC#N', 'O=C1CCc2cc(F)c(F)cc21', 'C', 'CCCCCC', 'c1ccc(C2(c3ccccc3)c3cc4c(cc3-c3sc5ccsc5c32)C(c2ccccc2)(c2ccccc2)c2c-4sc3ccsc23)cc1']","[0, 0, 0, 0, 0, 3, 183, 5, 184, 17, 8, 1, 9, 39, 11, 12, 14]"
PBDS-T,ITIC-Th1,-5.349999999999999,-3.67,-5.7,-4.12,1.0,CB,20.0,DIO,25,MoOx,ZnO,12.04,12.04,0.88,70.0,"['CCCCC(C)CC', 'C1CCSC1', 'Cc1cccs1', 'O=C1c2cscc2C(=O)C2CSCC12', 'CCC[Si](CCC)(CCC)c1cccs1', 'Cc1cc2cc3sccc3cc2s1']","['N#CCC#N', 'O=C1CCc2ccc(F)cc21', 'C', 'CCCCCC', 'c1csc(C2(c3cccs3)c3cc4c(cc3-c3sc5ccsc5c32)C(c2cccs2)(c2cccs2)c2c-4sc3ccsc23)c1']","['CCCCC(C)CC', 'C1CCSC1', 'Cc1cccs1', 'O=C1c2cscc2C(=O)C2CSCC12', 'CCC[Si](CCC)(CCC)c1cccs1', 'Cc1cc2cc3sccc3cc2s1', '.', 'N#CCC#N', 'O=C1CCc2ccc(F)cc21', 'C', 'CCCCCC', 'c1csc(C2(c3cccs3)c3cc4c(cc3-c3sc5ccsc5c32)C(c2cccs2)(c2cccs2)c2c-4sc3ccsc23)c1']","[0, 0, 0, 0, 0, 3, 183, 5, 184, 17, 8, 1, 9, 61, 11, 12, 59]"
J71,ITDM,-5.353333333333333,-3.4318181818181825,-5.58,-3.82,1.0,CF,16.0,_,100,PEDOT:PSS,ZrAcAc,12.05,12.05,1.015,70.9,"['CCCCCCCCC(C)CCCCCC', 'Cc1cccs1', 'CCC[Si](CCC)(CCC)c1cccs1', 'c1ccsc1', 'Fc1cc2nnnc2cc1F', 'Cc1cc2cc3sccc3cc2s1']","['N#CCC#N', 'Cc1cc2c(cc1C)C(=O)CC2', 'C', 'CCCCCC', 'CC1=CC2SC3=C(C2S1)C(c1ccccc1)(c1ccccc1)c1cc2c(cc13)C(c1ccccc1)(c1ccccc1)c1c-2sc2ccsc12']","['CCCCCCCCC(C)CCCCCC', 'Cc1cccs1', 'CCC[Si](CCC)(CCC)c1cccs1', 'c1ccsc1', 'Fc1cc2nnnc2cc1F', 'Cc1cc2cc3sccc3cc2s1', '.', 'N#CCC#N', 'Cc1cc2c(cc1C)C(=O)CC2', 'C', 'CCCCCC', 'CC1=CC2SC3=C(C2S1)C(c1ccccc1)(c1ccccc1)c1cc2c(cc13)C(c1ccccc1)(c1ccccc1)c1c-2sc2ccsc12']","[0, 0, 0, 0, 0, 16, 5, 17, 6, 18, 8, 1, 9, 153, 11, 12, 185]"
J71,ITCF,-5.353333333333333,-3.4318181818181825,-5.59,-3.95,1.0,CF,16.0,_,100,PEDOT:PSS,ZrAcAc,13.25,13.25,0.91,78.8,"['CCCCCCCCC(C)CCCCCC', 'Cc1cccs1', 'CCC[Si](CCC)(CCC)c1cccs1', 'c1ccsc1', 'Fc1cc2nnnc2cc1F', 'Cc1cc2cc3sccc3cc2s1']","['N#CCC#N', 'Cc1cc2c(cc1F)C(=O)CC2', 'C', 'CCCCCC', 'c1ccc(C2(c3ccccc3)c3cc4c(cc3-c3sc5ccsc5c32)C(c2ccccc2)(c2ccccc2)c2c-4sc3ccsc23)cc1']","['CCCCCCCCC(C)CCCCCC', 'Cc1cccs1', 'CCC[Si](CCC)(CCC)c1cccs1', 'c1ccsc1', 'Fc1cc2nnnc2cc1F', 'Cc1cc2cc3sccc3cc2s1', '.', 'N#CCC#N', 'Cc1cc2c(cc1F)C(=O)CC2', 'C', 'CCCCCC', 'c1ccc(C2(c3ccccc3)c3cc4c(cc3-c3sc5ccsc5c32)C(c2ccccc2)(c2ccccc2)c2c-4sc3ccsc23)cc1']","[0, 0, 0, 0, 0, 16, 5, 17, 6, 18, 8, 1, 9, 186, 11, 12, 14]"
J71,IT-4F,-5.353333333333333,-3.4318181818181825,-5.66875,-4.060416666666667,1.0,CF,16.0,_,100,PEDOT:PSS,ZrAcAc,11.66,11.67,0.803,74.2,"['CCCCCCCCC(C)CCCCCC', 'Cc1cccs1', 'CCC[Si](CCC)(CCC)c1cccs1', 'c1ccsc1', 'Fc1cc2nnnc2cc1F', 'Cc1cc2cc3sccc3cc2s1']","['N#CCC#N', 'O=C1CCc2cc(F)c(F)cc21', 'C', 'CCCCCC', 'c1ccc(C2(c3ccccc3)c3cc4c(cc3-c3sc5ccsc5c32)C(c2ccccc2)(c2ccccc2)c2c-4sc3ccsc23)cc1']","['CCCCCCCCC(C)CCCCCC', 'Cc1cccs1', 'CCC[Si](CCC)(CCC)c1cccs1', 'c1ccsc1', 'Fc1cc2nnnc2cc1F', 'Cc1cc2cc3sccc3cc2s1', '.', 'N#CCC#N', 'O=C1CCc2cc(F)c(F)cc21', 'C', 'CCCCCC', 'c1ccc(C2(c3ccccc3)c3cc4c(cc3-c3sc5ccsc5c32)C(c2ccccc2)(c2ccccc2)c2c-4sc3ccsc23)cc1']","[0, 0, 0, 0, 0, 16, 5, 17, 6, 18, 8, 1, 9, 39, 11, 12, 14]"
2TC-TT-BDTFT,m-ITIC,-5.45,-3.5,-5.526666666666667,-3.8515384615384622,1.0,o-DCB,16.0,_,120,PEDOT:PSS,PDINO,9.65,9.59,1.06,59.31,"['O', 'CCCCCCC(C)CCCC', 'C=O', 'CCCCC(C)CC', 'Cc1cccs1', 'Fc1ccsc1', 'c1ccsc1', 'c1cc2sccc2s1', 'Cc1cc2cc3sccc3cc2s1']","['N#CCC#N', 'O=C1CCc2ccccc21', 'C', 'CCCCCC', 'c1ccc(C2(c3ccccc3)c3cc4c(cc3-c3sc5ccsc5c32)C(c2ccccc2)(c2ccccc2)c2c-4sc3ccsc23)cc1']","['O', 'CCCCCCC(C)CCCC', 'C=O', 'CCCCC(C)CC', 'Cc1cccs1', 'Fc1ccsc1', 'c1ccsc1', 'c1cc2sccc2s1', 'Cc1cc2cc3sccc3cc2s1', '.', 'N#CCC#N', 'O=C1CCc2ccccc21', 'C', 'CCCCCC', 'c1ccc(C2(c3ccccc3)c3cc4c(cc3-c3sc5ccsc5c32)C(c2ccccc2)(c2ccccc2)c2c-4sc3ccsc23)cc1']","[0, 0, 2, 32, 4, 3, 5, 23, 6, 7, 8, 1, 9, 10, 11, 12, 14]"
2T-TTC-BDTFT,m-ITIC,-5.41,-3.53,-5.526666666666667,-3.8515384615384622,1.0,o-DCB,16.0,_,120,PEDOT:PSS,PDINO,11.15,11.15,0.97,69.37,"['OS', 'CCCCCCC(C)CCCC', 'C=O', 'CCCCC(C)CC', 'Cc1cccs1', 'Fc1ccsc1', 'c1ccsc1', 'c1cc2sccc2s1', 'Cc1cc2cc3sccc3cc2s1']","['N#CCC#N', 'O=C1CCc2ccccc21', 'C', 'CCCCCC', 'c1ccc(C2(c3ccccc3)c3cc4c(cc3-c3sc5ccsc5c32)C(c2ccccc2)(c2ccccc2)c2c-4sc3ccsc23)cc1']","['OS', 'CCCCCCC(C)CCCC', 'C=O', 'CCCCC(C)CC', 'Cc1cccs1', 'Fc1ccsc1', 'c1ccsc1', 'c1cc2sccc2s1', 'Cc1cc2cc3sccc3cc2s1', '.', 'N#CCC#N', 'O=C1CCc2ccccc21', 'C', 'CCCCCC', 'c1ccc(C2(c3ccccc3)c3cc4c(cc3-c3sc5ccsc5c32)C(c2ccccc2)(c2ccccc2)c2c-4sc3ccsc23)cc1']","[0, 0, 31, 32, 4, 3, 5, 23, 6, 7, 8, 1, 9, 10, 11, 12, 14]"
PTB7-Th,ACS8,-5.213181818181817,-3.541944444444445,-5.54,-4.05,0.5,Toluene,20.0,_,25,MoOx,PFN,9.9,9.92,0.75,58.8,"['O', 'CCCCC(C)CC', 'C=O', 'CCCCC(C)CC', 'Cc1scc2scc(F)c12', 'c1ccsc1', 'Cc1cc2cc3sccc3cc2s1']","['CCCCC(C)CC', 'N#CCC#N', 'O=C1CCc2cc(F)c(F)cc21', 'C', 'CCCCCC', 'S', 'c1ccsc1', 'c1ccc(C2(c3ccccc3)c3cc4c(cc3-c3sccc32)C(c2ccccc2)(c2ccccc2)c2ccsc2-4)cc1']","['O', 'CCCCC(C)CC', 'C=O', 'CCCCC(C)CC', 'Cc1scc2scc(F)c12', 'c1ccsc1', 'Cc1cc2cc3sccc3cc2s1', '.', 'CCCCC(C)CC', 'N#CCC#N', 'O=C1CCc2cc(F)c(F)cc21', 'C', 'CCCCCC', 'S', 'c1ccsc1', 'c1ccc(C2(c3ccccc3)c3cc4c(cc3-c3sccc32)C(c2ccccc2)(c2ccccc2)c2ccsc2-4)cc1']","[0, 2, 3, 4, 3, 33, 6, 8, 1, 3, 9, 39, 11, 12, 24, 6, 36]"
PBDB-T,IDNO-IDT,-5.297714285714285,-3.4170000000000003,-5.45,-3.65,1.0,CB,20.0,_,140,PEDOT:PSS,Ca,1.1,0.94,1.03,34.47,"['CCCCC(C)CC', 'Cc1cccs1', 'c1ccsc1', 'O=C1c2cscc2C(=O)c2cscc21', 'Cc1cc2cc3sccc3cc2s1']","['CCCCCC', 'CCN1C(=O)C(=O)c2ccccc21', 'c1ccc(C2(c3ccccc3)c3cc4c(cc3-c3sccc32)C(c2ccccc2)(c2ccccc2)c2ccsc2-4)cc1']","['CCCCC(C)CC', 'Cc1cccs1', 'c1ccsc1', 'O=C1c2cscc2C(=O)c2cscc21', 'Cc1cc2cc3sccc3cc2s1', '.', 'CCCCCC', 'CCN1C(=O)C(=O)c2ccccc21', 'c1ccc(C2(c3ccccc3)c3cc4c(cc3-c3sccc32)C(c2ccccc2)(c2ccccc2)c2ccsc2-4)cc1']","[0, 0, 0, 0, 0, 0, 0, 0, 3, 5, 6, 29, 8, 1, 12, 188, 36]"
PBDB-T,IM1-IDT,-5.297714285714285,-3.4170000000000003,-5.46,-4.02,0.667,CB,20.0,_,140,PEDOT:PSS,Ca,1.62,1.32,0.55,47.41,"['CCCCC(C)CC', 'Cc1cccs1', 'c1ccsc1', 'O=C1c2cscc2C(=O)c2cscc21', 'Cc1cc2cc3sccc3cc2s1']","['N#CCC#N', 'CCCCCC', 'CCN1C(=O)Cc2ccccc21', 'c1ccc(C2(c3ccccc3)c3cc4c(cc3-c3sccc32)C(c2ccccc2)(c2ccccc2)c2ccsc2-4)cc1']","['CCCCC(C)CC', 'Cc1cccs1', 'c1ccsc1', 'O=C1c2cscc2C(=O)c2cscc21', 'Cc1cc2cc3sccc3cc2s1', '.', 'N#CCC#N', 'CCCCCC', 'CCN1C(=O)Cc2ccccc21', 'c1ccc(C2(c3ccccc3)c3cc4c(cc3-c3sccc32)C(c2ccccc2)(c2ccccc2)c2ccsc2-4)cc1']","[0, 0, 0, 0, 0, 0, 0, 3, 5, 6, 29, 8, 1, 9, 12, 189, 36]"
PTB7-Th,NFDTS,-5.213181818181817,-3.541944444444445,-5.36,-3.92,0.833,CF,20.0,_,25,PEDOT:PSS,PFN-Br,6.15,6.15,0.67,48.9,"['O', 'CCCCC(C)CC', 'C=O', 'CCCCC(C)CC', 'Cc1scc2scc(F)c12', 'c1ccsc1', 'Cc1cc2cc3sccc3cc2s1']","['N#CCC#N', 'O=C1CCc2cc(F)c(F)cc21', 'C', 'CCCCCCCC[Si]1(CCCCCCCC)c2ccsc2-c2sc3c4c(sc3c21)-c1sccc1[Si]4(CCCCCCCC)CCCCCCCC']","['O', 'CCCCC(C)CC', 'C=O', 'CCCCC(C)CC', 'Cc1scc2scc(F)c12', 'c1ccsc1', 'Cc1cc2cc3sccc3cc2s1', '.', 'N#CCC#N', 'O=C1CCc2cc(F)c(F)cc21', 'C', 'CCCCCCCC[Si]1(CCCCCCCC)c2ccsc2-c2sc3c4c(sc3c21)-c1sccc1[Si]4(CCCCCCCC)CCCCCCCC']","[0, 0, 0, 0, 0, 2, 3, 4, 3, 33, 6, 8, 1, 9, 39, 11, 191]"
PTB7-Th,NFDTSB,-5.213181818181817,-3.541944444444445,-5.56,-3.85,1.0,CF,20.0,_,25,PEDOT:PSS,PFN-Br,9.6,9.61,0.75,63.6,"['O', 'CCCCC(C)CC', 'C=O', 'CCCCC(C)CC', 'Cc1scc2scc(F)c12', 'c1ccsc1', 'Cc1cc2cc3sccc3cc2s1']","['OS', 'CCCCCCC(C)CCCC', 'N#CCC#N', 'O=C1CCc2cc(F)c(F)cc21', 'C', 'CCCCCCCC[Si]1(CCCCCCCC)c2ccsc2-c2sc3cc4c5c(sc4cc3c21)-c1sccc1[Si]5(CCCCCCCC)CCCCCCCC']","['O', 'CCCCC(C)CC', 'C=O', 'CCCCC(C)CC', 'Cc1scc2scc(F)c12', 'c1ccsc1', 'Cc1cc2cc3sccc3cc2s1', '.', 'OS', 'CCCCCCC(C)CCCC', 'N#CCC#N', 'O=C1CCc2cc(F)c(F)cc21', 'C', 'CCCCCCCC[Si]1(CCCCCCCC)c2ccsc2-c2sc3cc4c5c(sc4cc3c21)-c1sccc1[Si]5(CCCCCCCC)CCCCCCCC']","[0, 0, 0, 2, 3, 4, 3, 33, 6, 8, 1, 31, 32, 9, 39, 11, 192]"
PBTIBDTT,ITIC-F,-5.47,-3.6,-5.619999999999999,-4.02,1.0,CB,16.0,_,25,PEDOT:PSS,ZnO,11.19,11.19,0.921,74.1,"['CCCCCCCCC(C)CCCCCC', 'CCCCC(C)CC', 'CCCCCCCCCC', 'Cc1cccs1', 'c1ccsc1', 'O=c1nc(=O)c2ccsc2c2sccc12', 'c1ccsc1', 'Cc1cc2cc3sccc3cc2s1']","['N#CCC#N', 'O=C1CCc2cc(F)c(F)cc21', 'C', 'CCCCCC', 'c1ccc(C2(c3ccccc3)c3cc4c(cc3-c3sc5ccsc5c32)C(c2ccccc2)(c2ccccc2)c2c-4sc3ccsc23)cc1']","['CCCCCCCCC(C)CCCCCC', 'CCCCC(C)CC', 'CCCCCCCCCC', 'Cc1cccs1', 'c1ccsc1', 'O=c1nc(=O)c2ccsc2c2sccc12', 'c1ccsc1', 'Cc1cc2cc3sccc3cc2s1', '.', 'N#CCC#N', 'O=C1CCc2cc(F)c(F)cc21', 'C', 'CCCCCC', 'c1ccc(C2(c3ccccc3)c3cc4c(cc3-c3sc5ccsc5c32)C(c2ccccc2)(c2ccccc2)c2c-4sc3ccsc23)cc1']","[0, 0, 0, 16, 3, 162, 5, 6, 193, 6, 8, 1, 9, 39, 11, 12, 14]"
PBDB-T,DTNIF,-5.297714285714285,-3.4170000000000003,-5.82,-3.92,1.0,CB,18.0,_,25,MoOx,ZnO,8.73,8.68,0.9,72.77,"['CCCCC(C)CC', 'Cc1cccs1', 'c1ccsc1', 'O=C1c2cscc2C(=O)c2cscc21', 'Cc1cc2cc3sccc3cc2s1']","['N#CCC#N', 'O=C1CCc2ccc(F)cc21', 'C', 'CCCCC(CC)CC1(CC(CC)CCCC)c2ccsc2-c2c1ccc1c3c(ccc21)C(CC(CC)CCCC)(CC(CC)CCCC)c1ccsc1-3']","['CCCCC(C)CC', 'Cc1cccs1', 'c1ccsc1', 'O=C1c2cscc2C(=O)c2cscc21', 'Cc1cc2cc3sccc3cc2s1', '.', 'N#CCC#N', 'O=C1CCc2ccc(F)cc21', 'C', 'CCCCC(CC)CC1(CC(CC)CCCC)c2ccsc2-c2c1ccc1c3c(ccc21)C(CC(CC)CCCC)(CC(CC)CCCC)c1ccsc1-3']","[0, 0, 0, 0, 0, 0, 0, 3, 5, 6, 29, 8, 1, 9, 61, 11, 138]"
PBDB-T,DTNSF,-5.297714285714285,-3.4170000000000003,-5.52,-4.0,1.0,CB,18.0,_,25,MoOx,ZnO,7.15,7.28,0.92,54.62,"['CCCCC(C)CC', 'Cc1cccs1', 'c1ccsc1', 'O=C1c2cscc2C(=O)c2cscc21', 'Cc1cc2cc3sccc3cc2s1']","['N#CCC#N', 'O=C1CCc2ccc(F)cc21', 'C', 'c1ccsc1', 'CCCCC(CC)CC1(CC(CC)CCCC)c2ccsc2-c2c1ccc1c3c(ccc21)C(CC(CC)CCCC)(CC(CC)CCCC)c1ccsc1-3']","['CCCCC(C)CC', 'Cc1cccs1', 'c1ccsc1', 'O=C1c2cscc2C(=O)c2cscc21', 'Cc1cc2cc3sccc3cc2s1', '.', 'N#CCC#N', 'O=C1CCc2ccc(F)cc21', 'C', 'c1ccsc1', 'CCCCC(CC)CC1(CC(CC)CCCC)c2ccsc2-c2c1ccc1c3c(ccc21)C(CC(CC)CCCC)(CC(CC)CCCC)c1ccsc1-3']","[0, 0, 0, 0, 0, 0, 3, 5, 6, 29, 8, 1, 9, 61, 11, 6, 138]"
PBTIBDTT,Si4TIC-F,-5.47,-3.6,-5.58,-4.21,0.667,CB,12.5,CN,25,PEDOT:PSS,PDIN,10.2,10.2,0.78,69.4,"['CCCCCCCCC(C)CCCCCC', 'CCCCC(C)CC', 'CCCCCCCCCC', 'Cc1cccs1', 'c1ccsc1', 'O=c1nc(=O)c2ccsc2c2sccc12', 'c1ccsc1', 'Cc1cc2cc3sccc3cc2s1']","['N#CCC#N', 'O=C1CCc2ccc(F)cc21', 'C', 'CCCCCC[Si]1(CCCCCC)c2ccsc2-c2sc3c4c(sc3c21)-c1sccc1[Si]4(CCCCCC)CCCCCC']","['CCCCCCCCC(C)CCCCCC', 'CCCCC(C)CC', 'CCCCCCCCCC', 'Cc1cccs1', 'c1ccsc1', 'O=c1nc(=O)c2ccsc2c2sccc12', 'c1ccsc1', 'Cc1cc2cc3sccc3cc2s1', '.', 'N#CCC#N', 'O=C1CCc2ccc(F)cc21', 'C', 'CCCCCC[Si]1(CCCCCC)c2ccsc2-c2sc3c4c(sc3c21)-c1sccc1[Si]4(CCCCCC)CCCCCC']","[0, 0, 0, 0, 16, 3, 162, 5, 6, 193, 6, 8, 1, 9, 61, 11, 194]"
PBT1-C-MW,ITCPTC,-5.46,-3.4,-5.604000000000001,-3.858000000000001,1.0,CF,16.0,_,100,PEDOT:PSS,ZrAcAc,12.8,12.77,0.94,79.0,"['CCCCC(C)CC', 'CCCCCCC(C)CCCC', 'c1ccccc1', 'C', 'Cc1cc2cc3sccc3cc2s1', 'Cc1cccs1', 'c1ccsc1', 'O=C1c2cscc2C(=O)c2cscc21']","['N#CCC#N', 'O=C1CCc2cscc21', 'C', 'CCCCCC', 'c1ccc(C2(c3ccccc3)c3cc4c(cc3-c3sc5ccsc5c32)C(c2ccccc2)(c2ccccc2)c2c-4sc3ccsc23)cc1']","['CCCCC(C)CC', 'CCCCCCC(C)CCCC', 'c1ccccc1', 'C', 'Cc1cc2cc3sccc3cc2s1', 'Cc1cccs1', 'c1ccsc1', 'O=C1c2cscc2C(=O)c2cscc21', '.', 'N#CCC#N', 'O=C1CCc2cscc21', 'C', 'CCCCCC', 'c1ccc(C2(c3ccccc3)c3cc4c(cc3-c3sc5ccsc5c32)C(c2ccccc2)(c2ccccc2)c2c-4sc3ccsc23)cc1']","[0, 0, 0, 3, 32, 56, 11, 8, 5, 6, 29, 1, 9, 40, 11, 12, 14]"
PBDTTz-BP,ITIC,-5.025,-2.97,-5.57675,-3.918163265306122,1.0,CB,14.0,_,25,PEDOT:PSS,Ca,8.03,8.03,0.81,56.0,"['CCCCCCCCC(C)CCCCCC', 'O', 'CCCCCCC(C)CCCC', 'Cc1cccs1', 'c1ccsc1', 'Fc1cc2nn(S)nc2cc1F', 'c1ccccc1', 'Cc1cc2cc3sccc3cc2s1']","['N#CCC#N', 'O=C1CCc2ccccc21', 'C', 'CCCCCC', 'c1ccc(C2(c3ccccc3)c3cc4c(cc3-c3sc5ccsc5c32)C(c2ccccc2)(c2ccccc2)c2c-4sc3ccsc23)cc1']","['CCCCCCCCC(C)CCCCCC', 'O', 'CCCCCCC(C)CCCC', 'Cc1cccs1', 'c1ccsc1', 'Fc1cc2nn(S)nc2cc1F', 'c1ccccc1', 'Cc1cc2cc3sccc3cc2s1', '.', 'N#CCC#N', 'O=C1CCc2ccccc21', 'C', 'CCCCCC', 'c1ccc(C2(c3ccccc3)c3cc4c(cc3-c3sc5ccsc5c32)C(c2ccccc2)(c2ccccc2)c2c-4sc3ccsc23)cc1']","[0, 0, 0, 16, 2, 32, 5, 6, 57, 56, 8, 1, 9, 10, 11, 12, 14]"