Donor,Acceptor,HOMO_D_eV,LUMO_D_eV,HOMO_A_eV,LUMO_A_eV,D_A_ratio_m_m,solvent,solvent_additive,annealing_temperature,hole_contact_layer,electron_contact_layer,PCE_percent,calc_PCE_percent,Voc_V,FF_percent,Donor_BRICS,Acceptor_BRICS,DA_pair_BRICS,DA_tokenized_BRICS
J101,ZITI,-5.3,-3.5,-5.550000000000001,-3.78,1.0,CF,_,120.0,PEDOT:PSS,PDINO,14.43,14.43,0.937,72.48,"[<rdkit.Chem.rdchem.Mol object at 0x7f5838d05fc0>, <rdkit.Chem.rdchem.Mol object at 0x7f5838d05d90>, <rdkit.Chem.rdchem.Mol object at 0x7f5838d07300>, <rdkit.Chem.rdchem.Mol object at 0x7f5838d07df0>, <rdkit.Chem.rdchem.Mol object at 0x7f5838d147b0>, <rdkit.Chem.rdchem.Mol object at 0x7f5838d14660>]","[<rdkit.Chem.rdchem.Mol object at 0x7f5838d07e60>, <rdkit.Chem.rdchem.Mol object at 0x7f5838d14040>, <rdkit.Chem.rdchem.Mol object at 0x7f5838d07f40>, <rdkit.Chem.rdchem.Mol object at 0x7f5838d14350>]","[<rdkit.Chem.rdchem.Mol object at 0x7f5838d05fc0>, <rdkit.Chem.rdchem.Mol object at 0x7f5838d05d90>, <rdkit.Chem.rdchem.Mol object at 0x7f5838d07300>, <rdkit.Chem.rdchem.Mol object at 0x7f5838d07df0>, <rdkit.Chem.rdchem.Mol object at 0x7f5838d147b0>, <rdkit.Chem.rdchem.Mol object at 0x7f5838d14660>, '.', <rdkit.Chem.rdchem.Mol object at 0x7f5838d07e60>, <rdkit.Chem.rdchem.Mol object at 0x7f5838d14040>, <rdkit.Chem.rdchem.Mol object at 0x7f5838d07f40>, <rdkit.Chem.rdchem.Mol object at 0x7f5838d14350>]","[0, 0, 0, 0, 0, 0, 6368, 6369, 6370, 6371, 6372, 6373, 1, 6374, 6375, 6376, 6377]"
J71,ZITI,-5.353333333333333,-3.4318181818181825,-5.550000000000001,-3.78,1.0,CF,_,25.0,PEDOT:PSS,PDINO,12.82,12.82,0.912,69.49,"[<rdkit.Chem.rdchem.Mol object at 0x7f5838d07c30>, <rdkit.Chem.rdchem.Mol object at 0x7f5838d04a50>, <rdkit.Chem.rdchem.Mol object at 0x7f5838d14580>, <rdkit.Chem.rdchem.Mol object at 0x7f5838d078b0>, <rdkit.Chem.rdchem.Mol object at 0x7f5838d14890>, <rdkit.Chem.rdchem.Mol object at 0x7f5838d14e40>]","[<rdkit.Chem.rdchem.Mol object at 0x7f5838d06d50>, <rdkit.Chem.rdchem.Mol object at 0x7f5838d14510>, <rdkit.Chem.rdchem.Mol object at 0x7f5838d07760>, <rdkit.Chem.rdchem.Mol object at 0x7f5838d14ba0>]","[<rdkit.Chem.rdchem.Mol object at 0x7f5838d07c30>, <rdkit.Chem.rdchem.Mol object at 0x7f5838d04a50>, <rdkit.Chem.rdchem.Mol object at 0x7f5838d14580>, <rdkit.Chem.rdchem.Mol object at 0x7f5838d078b0>, <rdkit.Chem.rdchem.Mol object at 0x7f5838d14890>, <rdkit.Chem.rdchem.Mol object at 0x7f5838d14e40>, '.', <rdkit.Chem.rdchem.Mol object at 0x7f5838d06d50>, <rdkit.Chem.rdchem.Mol object at 0x7f5838d14510>, <rdkit.Chem.rdchem.Mol object at 0x7f5838d07760>, <rdkit.Chem.rdchem.Mol object at 0x7f5838d14ba0>]","[0, 0, 0, 0, 0, 0, 6378, 6379, 6380, 6381, 6382, 6383, 1, 6384, 6385, 6386, 6387]"
PTB7-Th,DICTF-C10,-5.204782608695651,-3.5391891891891896,-5.67,-3.89,0.667,o-DCB,_,25.0,MoOx,ZnO,6.93,8.33,0.865,50.0,"[<rdkit.Chem.rdchem.Mol object at 0x7f5838d07610>, <rdkit.Chem.rdchem.Mol object at 0x7f5838d07a00>, <rdkit.Chem.rdchem.Mol object at 0x7f5838d144a0>, <rdkit.Chem.rdchem.Mol object at 0x7f5838d14c80>, <rdkit.Chem.rdchem.Mol object at 0x7f5838d14970>, <rdkit.Chem.rdchem.Mol object at 0x7f5838d14d60>, <rdkit.Chem.rdchem.Mol object at 0x7f5838d14f90>]","[<rdkit.Chem.rdchem.Mol object at 0x7f5838d14b30>, <rdkit.Chem.rdchem.Mol object at 0x7f5838d14c10>, <rdkit.Chem.rdchem.Mol object at 0x7f5838d14cf0>, <rdkit.Chem.rdchem.Mol object at 0x7f5838d14190>, <rdkit.Chem.rdchem.Mol object at 0x7f5838d140b0>]","[<rdkit.Chem.rdchem.Mol object at 0x7f5838d07610>, <rdkit.Chem.rdchem.Mol object at 0x7f5838d07a00>, <rdkit.Chem.rdchem.Mol object at 0x7f5838d144a0>, <rdkit.Chem.rdchem.Mol object at 0x7f5838d14c80>, <rdkit.Chem.rdchem.Mol object at 0x7f5838d14970>, <rdkit.Chem.rdchem.Mol object at 0x7f5838d14d60>, <rdkit.Chem.rdchem.Mol object at 0x7f5838d14f90>, '.', <rdkit.Chem.rdchem.Mol object at 0x7f5838d14b30>, <rdkit.Chem.rdchem.Mol object at 0x7f5838d14c10>, <rdkit.Chem.rdchem.Mol object at 0x7f5838d14cf0>, <rdkit.Chem.rdchem.Mol object at 0x7f5838d14190>, <rdkit.Chem.rdchem.Mol object at 0x7f5838d140b0>]","[0, 0, 0, 0, 6388, 6389, 6390, 6391, 6392, 6393, 6394, 1, 6395, 6396, 6397, 6398, 6399]"