Donor,Acceptor,HOMO_D_eV,LUMO_D_eV,HOMO_A_eV,LUMO_A_eV,D_A_ratio_m_m,solvent,solvent_additive,annealing_temperature,hole_contact_layer,electron_contact_layer,PCE_percent,calc_PCE_percent,Voc_V,FF_percent,Donor_BRICS,Acceptor_BRICS,DA_pair_BRICS,DA_tokenized_BRICS
PBDB-T,NTIC,-5.297714285714285,-3.4170000000000003,-5.58,-3.76,1.25,CF,_,25.0,PEDOT:PSS,PDINO,8.63,8.63,0.935,68.1,"[<rdkit.Chem.rdchem.Mol object at 0x7f5838df3b50>, <rdkit.Chem.rdchem.Mol object at 0x7f5838dfd4d0>, <rdkit.Chem.rdchem.Mol object at 0x7f5838dfc890>, <rdkit.Chem.rdchem.Mol object at 0x7f5838dfc580>, <rdkit.Chem.rdchem.Mol object at 0x7f5838dfe110>]","[<rdkit.Chem.rdchem.Mol object at 0x7f5838dfe420>, <rdkit.Chem.rdchem.Mol object at 0x7f5838dfca50>, <rdkit.Chem.rdchem.Mol object at 0x7f5838dfc200>, <rdkit.Chem.rdchem.Mol object at 0x7f5838dfc0b0>, <rdkit.Chem.rdchem.Mol object at 0x7f5838dfd150>]","[<rdkit.Chem.rdchem.Mol object at 0x7f5838df3b50>, <rdkit.Chem.rdchem.Mol object at 0x7f5838dfd4d0>, <rdkit.Chem.rdchem.Mol object at 0x7f5838dfc890>, <rdkit.Chem.rdchem.Mol object at 0x7f5838dfc580>, <rdkit.Chem.rdchem.Mol object at 0x7f5838dfe110>, '.', <rdkit.Chem.rdchem.Mol object at 0x7f5838dfe420>, <rdkit.Chem.rdchem.Mol object at 0x7f5838dfca50>, <rdkit.Chem.rdchem.Mol object at 0x7f5838dfc200>, <rdkit.Chem.rdchem.Mol object at 0x7f5838dfc0b0>, <rdkit.Chem.rdchem.Mol object at 0x7f5838dfd150>]","[0, 0, 0, 0, 0, 0, 3239, 3240, 3241, 3242, 3243, 1, 3244, 3245, 3246, 3247, 3248]"
PBDB-T,NTIC-Me,-5.297714285714285,-3.4170000000000003,-5.53,-3.73,1.25,CF,_,25.0,PEDOT:PSS,PDINO,8.3,8.88,0.963,66.2,"[<rdkit.Chem.rdchem.Mol object at 0x7f5838df3060>, <rdkit.Chem.rdchem.Mol object at 0x7f5838dfda10>, <rdkit.Chem.rdchem.Mol object at 0x7f5838dfdc40>, <rdkit.Chem.rdchem.Mol object at 0x7f5838dfc3c0>, <rdkit.Chem.rdchem.Mol object at 0x7f5838dfe5e0>]","[<rdkit.Chem.rdchem.Mol object at 0x7f5838dfe810>, <rdkit.Chem.rdchem.Mol object at 0x7f5838dfd2a0>, <rdkit.Chem.rdchem.Mol object at 0x7f5838dfdb60>, <rdkit.Chem.rdchem.Mol object at 0x7f5838dfd3f0>, <rdkit.Chem.rdchem.Mol object at 0x7f5838dfccf0>]","[<rdkit.Chem.rdchem.Mol object at 0x7f5838df3060>, <rdkit.Chem.rdchem.Mol object at 0x7f5838dfda10>, <rdkit.Chem.rdchem.Mol object at 0x7f5838dfdc40>, <rdkit.Chem.rdchem.Mol object at 0x7f5838dfc3c0>, <rdkit.Chem.rdchem.Mol object at 0x7f5838dfe5e0>, '.', <rdkit.Chem.rdchem.Mol object at 0x7f5838dfe810>, <rdkit.Chem.rdchem.Mol object at 0x7f5838dfd2a0>, <rdkit.Chem.rdchem.Mol object at 0x7f5838dfdb60>, <rdkit.Chem.rdchem.Mol object at 0x7f5838dfd3f0>, <rdkit.Chem.rdchem.Mol object at 0x7f5838dfccf0>]","[0, 0, 0, 0, 0, 0, 3249, 3250, 3251, 3252, 3253, 1, 3254, 3255, 3256, 3257, 3258]"
PBDB-T,NTIC-OMe,-5.297714285714285,-3.4170000000000003,-5.53,-3.7,1.25,CF,_,25.0,PEDOT:PSS,PDINO,8.61,8.61,0.965,66.0,"[<rdkit.Chem.rdchem.Mol object at 0x7f5838dfc4a0>, <rdkit.Chem.rdchem.Mol object at 0x7f5838dfe3b0>, <rdkit.Chem.rdchem.Mol object at 0x7f5838dfde00>, <rdkit.Chem.rdchem.Mol object at 0x7f5838dfdcb0>, <rdkit.Chem.rdchem.Mol object at 0x7f5838dfeab0>]","[<rdkit.Chem.rdchem.Mol object at 0x7f5838dfe7a0>, <rdkit.Chem.rdchem.Mol object at 0x7f5838dfec00>, <rdkit.Chem.rdchem.Mol object at 0x7f5838dfe960>, <rdkit.Chem.rdchem.Mol object at 0x7f5838dfe8f0>, <rdkit.Chem.rdchem.Mol object at 0x7f5838dfceb0>, <rdkit.Chem.rdchem.Mol object at 0x7f5838dfdee0>]","[<rdkit.Chem.rdchem.Mol object at 0x7f5838dfc4a0>, <rdkit.Chem.rdchem.Mol object at 0x7f5838dfe3b0>, <rdkit.Chem.rdchem.Mol object at 0x7f5838dfde00>, <rdkit.Chem.rdchem.Mol object at 0x7f5838dfdcb0>, <rdkit.Chem.rdchem.Mol object at 0x7f5838dfeab0>, '.', <rdkit.Chem.rdchem.Mol object at 0x7f5838dfe7a0>, <rdkit.Chem.rdchem.Mol object at 0x7f5838dfec00>, <rdkit.Chem.rdchem.Mol object at 0x7f5838dfe960>, <rdkit.Chem.rdchem.Mol object at 0x7f5838dfe8f0>, <rdkit.Chem.rdchem.Mol object at 0x7f5838dfceb0>, <rdkit.Chem.rdchem.Mol object at 0x7f5838dfdee0>]","[0, 0, 0, 0, 0, 3259, 3260, 3261, 3262, 3263, 1, 3264, 3265, 3266, 3267, 3268, 3269]"
PffBT4T-2OD,FBR,-5.32,-3.695,-5.786666666666666,-3.673333333333333,0.714,o-DCB:CB (1:1),_,25.0,MoOx,ZnO,7.04,7.0,1.11,50.0,"[<rdkit.Chem.rdchem.Mol object at 0x7f5838dfe340>, <rdkit.Chem.rdchem.Mol object at 0x7f5838dfedc0>, <rdkit.Chem.rdchem.Mol object at 0x7f5838dfe490>, <rdkit.Chem.rdchem.Mol object at 0x7f5838dfeb90>, <rdkit.Chem.rdchem.Mol object at 0x7f5838dfee30>, <rdkit.Chem.rdchem.Mol object at 0x7f5838dfed50>]","[<rdkit.Chem.rdchem.Mol object at 0x7f5838dfc2e0>, <rdkit.Chem.rdchem.Mol object at 0x7f5838dfc350>, <rdkit.Chem.rdchem.Mol object at 0x7f5838dfde70>, <rdkit.Chem.rdchem.Mol object at 0x7f5838dfd850>, <rdkit.Chem.rdchem.Mol object at 0x7f5838dfc120>]","[<rdkit.Chem.rdchem.Mol object at 0x7f5838dfe340>, <rdkit.Chem.rdchem.Mol object at 0x7f5838dfedc0>, <rdkit.Chem.rdchem.Mol object at 0x7f5838dfe490>, <rdkit.Chem.rdchem.Mol object at 0x7f5838dfeb90>, <rdkit.Chem.rdchem.Mol object at 0x7f5838dfee30>, <rdkit.Chem.rdchem.Mol object at 0x7f5838dfed50>, '.', <rdkit.Chem.rdchem.Mol object at 0x7f5838dfc2e0>, <rdkit.Chem.rdchem.Mol object at 0x7f5838dfc350>, <rdkit.Chem.rdchem.Mol object at 0x7f5838dfde70>, <rdkit.Chem.rdchem.Mol object at 0x7f5838dfd850>, <rdkit.Chem.rdchem.Mol object at 0x7f5838dfc120>]","[0, 0, 0, 0, 0, 3280, 3281, 3282, 3283, 3284, 3285, 1, 3286, 3287, 3288, 3289, 3290]"
PBT1-C,IT-4F,-5.449999999999999,-3.41,-5.66875,-4.060416666666667,1.0,CB,DIO,25.0,MoO3,ZnO,10.9,10.97,0.79,70.5,"[<rdkit.Chem.rdchem.Mol object at 0x7f5838dfe030>, <rdkit.Chem.rdchem.Mol object at 0x7f5838dfe880>, <rdkit.Chem.rdchem.Mol object at 0x7f5838dfe570>, <rdkit.Chem.rdchem.Mol object at 0x7f5838dfdbd0>, <rdkit.Chem.rdchem.Mol object at 0x7f5838dfdfc0>, <rdkit.Chem.rdchem.Mol object at 0x7f5838dfc190>, <rdkit.Chem.rdchem.Mol object at 0x7f5838dfdaf0>, <rdkit.Chem.rdchem.Mol object at 0x7f5838dfc820>, <rdkit.Chem.rdchem.Mol object at 0x7f5838dfcba0>]","[<rdkit.Chem.rdchem.Mol object at 0x7f5838dfd770>, <rdkit.Chem.rdchem.Mol object at 0x7f5838dfeea0>, <rdkit.Chem.rdchem.Mol object at 0x7f5838dfea40>, <rdkit.Chem.rdchem.Mol object at 0x7f5838dfece0>, <rdkit.Chem.rdchem.Mol object at 0x7f5838dfe6c0>]","[<rdkit.Chem.rdchem.Mol object at 0x7f5838dfe030>, <rdkit.Chem.rdchem.Mol object at 0x7f5838dfe880>, <rdkit.Chem.rdchem.Mol object at 0x7f5838dfe570>, <rdkit.Chem.rdchem.Mol object at 0x7f5838dfdbd0>, <rdkit.Chem.rdchem.Mol object at 0x7f5838dfdfc0>, <rdkit.Chem.rdchem.Mol object at 0x7f5838dfc190>, <rdkit.Chem.rdchem.Mol object at 0x7f5838dfdaf0>, <rdkit.Chem.rdchem.Mol object at 0x7f5838dfc820>, <rdkit.Chem.rdchem.Mol object at 0x7f5838dfcba0>, '.', <rdkit.Chem.rdchem.Mol object at 0x7f5838dfd770>, <rdkit.Chem.rdchem.Mol object at 0x7f5838dfeea0>, <rdkit.Chem.rdchem.Mol object at 0x7f5838dfea40>, <rdkit.Chem.rdchem.Mol object at 0x7f5838dfece0>, <rdkit.Chem.rdchem.Mol object at 0x7f5838dfe6c0>]","[0, 0, 3291, 3292, 3293, 3294, 3295, 3296, 3297, 3298, 3299, 1, 3300, 3301, 3302, 3303, 3304]"
PBT1-C-2Cl,IT-4F,-5.59,-3.53,-5.66875,-4.060416666666667,1.0,CB,DIO,25.0,MoO3,ZnO,12.7,12.75,0.85,76.0,"[<rdkit.Chem.rdchem.Mol object at 0x7f5838dff5a0>, <rdkit.Chem.rdchem.Mol object at 0x7f5838dff530>, <rdkit.Chem.rdchem.Mol object at 0x7f5838dff610>, <rdkit.Chem.rdchem.Mol object at 0x7f5838dfdf50>, <rdkit.Chem.rdchem.Mol object at 0x7f5838dff290>, <rdkit.Chem.rdchem.Mol object at 0x7f5838dfcf90>, <rdkit.Chem.rdchem.Mol object at 0x7f5838dffca0>]","[<rdkit.Chem.rdchem.Mol object at 0x7f5838dffa00>, <rdkit.Chem.rdchem.Mol object at 0x7f5838dfcb30>, <rdkit.Chem.rdchem.Mol object at 0x7f5838dff060>, <rdkit.Chem.rdchem.Mol object at 0x7f5838dfe180>, <rdkit.Chem.rdchem.Mol object at 0x7f5838dff3e0>]","[<rdkit.Chem.rdchem.Mol object at 0x7f5838dff5a0>, <rdkit.Chem.rdchem.Mol object at 0x7f5838dff530>, <rdkit.Chem.rdchem.Mol object at 0x7f5838dff610>, <rdkit.Chem.rdchem.Mol object at 0x7f5838dfdf50>, <rdkit.Chem.rdchem.Mol object at 0x7f5838dff290>, <rdkit.Chem.rdchem.Mol object at 0x7f5838dfcf90>, <rdkit.Chem.rdchem.Mol object at 0x7f5838dffca0>, '.', <rdkit.Chem.rdchem.Mol object at 0x7f5838dffa00>, <rdkit.Chem.rdchem.Mol object at 0x7f5838dfcb30>, <rdkit.Chem.rdchem.Mol object at 0x7f5838dff060>, <rdkit.Chem.rdchem.Mol object at 0x7f5838dfe180>, <rdkit.Chem.rdchem.Mol object at 0x7f5838dff3e0>]","[0, 0, 0, 0, 3305, 3306, 3307, 3308, 3309, 3310, 3311, 1, 3312, 3313, 3314, 3315, 3316]"
J71,IT-IC,-5.353333333333333,-3.4318181818181825,-5.58,-3.88,0.833,CF,_,25.0,PEDOT:PSS,PDINO,9.3,9.04,0.96,63.6,"[<rdkit.Chem.rdchem.Mol object at 0x7f5838dff8b0>, <rdkit.Chem.rdchem.Mol object at 0x7f5838dff920>, <rdkit.Chem.rdchem.Mol object at 0x7f5838dfcd60>, <rdkit.Chem.rdchem.Mol object at 0x7f5838dfdd90>, <rdkit.Chem.rdchem.Mol object at 0x7f5838dfec70>, <rdkit.Chem.rdchem.Mol object at 0x7f5838dffe60>]","[<rdkit.Chem.rdchem.Mol object at 0x7f5838dff300>, <rdkit.Chem.rdchem.Mol object at 0x7f5838dfe1f0>, <rdkit.Chem.rdchem.Mol object at 0x7f5838dfe650>, <rdkit.Chem.rdchem.Mol object at 0x7f5838dfeb20>, <rdkit.Chem.rdchem.Mol object at 0x7f5838dff4c0>]","[<rdkit.Chem.rdchem.Mol object at 0x7f5838dff8b0>, <rdkit.Chem.rdchem.Mol object at 0x7f5838dff920>, <rdkit.Chem.rdchem.Mol object at 0x7f5838dfcd60>, <rdkit.Chem.rdchem.Mol object at 0x7f5838dfdd90>, <rdkit.Chem.rdchem.Mol object at 0x7f5838dfec70>, <rdkit.Chem.rdchem.Mol object at 0x7f5838dffe60>, '.', <rdkit.Chem.rdchem.Mol object at 0x7f5838dff300>, <rdkit.Chem.rdchem.Mol object at 0x7f5838dfe1f0>, <rdkit.Chem.rdchem.Mol object at 0x7f5838dfe650>, <rdkit.Chem.rdchem.Mol object at 0x7f5838dfeb20>, <rdkit.Chem.rdchem.Mol object at 0x7f5838dff4c0>]","[0, 0, 0, 0, 0, 3317, 3318, 3319, 3320, 3321, 3322, 1, 3323, 3324, 3325, 3326, 3327]"
J71,BDT-IC,-5.353333333333333,-3.4318181818181825,-5.51,-3.9,0.833,CF,_,25.0,PEDOT:PSS,PDINO,10.9,10.42,0.92,65.5,"[<rdkit.Chem.rdchem.Mol object at 0x7f5838dfff40>, <rdkit.Chem.rdchem.Mol object at 0x7f5838dffb50>, <rdkit.Chem.rdchem.Mol object at 0x7f5838dff840>, <rdkit.Chem.rdchem.Mol object at 0x7f5838dfe0a0>, <rdkit.Chem.rdchem.Mol object at 0x7f5838dfc040>, <rdkit.Chem.rdchem.Mol object at 0x7f5838e0c3c0>]","[<rdkit.Chem.rdchem.Mol object at 0x7f5838dfe500>, <rdkit.Chem.rdchem.Mol object at 0x7f5838dff760>, <rdkit.Chem.rdchem.Mol object at 0x7f5838dffdf0>, <rdkit.Chem.rdchem.Mol object at 0x7f5838dffbc0>, <rdkit.Chem.rdchem.Mol object at 0x7f5838e0c510>]","[<rdkit.Chem.rdchem.Mol object at 0x7f5838dfff40>, <rdkit.Chem.rdchem.Mol object at 0x7f5838dffb50>, <rdkit.Chem.rdchem.Mol object at 0x7f5838dff840>, <rdkit.Chem.rdchem.Mol object at 0x7f5838dfe0a0>, <rdkit.Chem.rdchem.Mol object at 0x7f5838dfc040>, <rdkit.Chem.rdchem.Mol object at 0x7f5838e0c3c0>, '.', <rdkit.Chem.rdchem.Mol object at 0x7f5838dfe500>, <rdkit.Chem.rdchem.Mol object at 0x7f5838dff760>, <rdkit.Chem.rdchem.Mol object at 0x7f5838dffdf0>, <rdkit.Chem.rdchem.Mol object at 0x7f5838dffbc0>, <rdkit.Chem.rdchem.Mol object at 0x7f5838e0c510>]","[0, 0, 0, 0, 0, 3328, 3329, 3330, 3331, 3332, 3333, 1, 3334, 3335, 3336, 3337, 3338]"
PBDB-T-2F,IT-4F,-5.47,-3.67,-5.66875,-4.060416666666667,1.0,CB,_,100.0,PEDOT:PSS,PFN-Br,13.59,13.59,0.86,76.0,"[<rdkit.Chem.rdchem.Mol object at 0x7f5838dfef10>, <rdkit.Chem.rdchem.Mol object at 0x7f5838e0c660>, <rdkit.Chem.rdchem.Mol object at 0x7f5838e0c2e0>, <rdkit.Chem.rdchem.Mol object at 0x7f5838e0c5f0>, <rdkit.Chem.rdchem.Mol object at 0x7f5838e0c900>, <rdkit.Chem.rdchem.Mol object at 0x7f5838e0cf90>]","[<rdkit.Chem.rdchem.Mol object at 0x7f5838dffa70>, <rdkit.Chem.rdchem.Mol object at 0x7f5838e0cf20>, <rdkit.Chem.rdchem.Mol object at 0x7f5838dff0d0>, <rdkit.Chem.rdchem.Mol object at 0x7f5838dffed0>, <rdkit.Chem.rdchem.Mol object at 0x7f5838e0c430>]","[<rdkit.Chem.rdchem.Mol object at 0x7f5838dfef10>, <rdkit.Chem.rdchem.Mol object at 0x7f5838e0c660>, <rdkit.Chem.rdchem.Mol object at 0x7f5838e0c2e0>, <rdkit.Chem.rdchem.Mol object at 0x7f5838e0c5f0>, <rdkit.Chem.rdchem.Mol object at 0x7f5838e0c900>, <rdkit.Chem.rdchem.Mol object at 0x7f5838e0cf90>, '.', <rdkit.Chem.rdchem.Mol object at 0x7f5838dffa70>, <rdkit.Chem.rdchem.Mol object at 0x7f5838e0cf20>, <rdkit.Chem.rdchem.Mol object at 0x7f5838dff0d0>, <rdkit.Chem.rdchem.Mol object at 0x7f5838dffed0>, <rdkit.Chem.rdchem.Mol object at 0x7f5838e0c430>]","[0, 0, 0, 0, 0, 3339, 3340, 3341, 3342, 3343, 3344, 1, 3345, 3346, 3347, 3348, 3349]"
PBDB-T-2F,IT-4Cl,-5.47,-3.67,-5.75,-4.09,1.0,CF,_,100.0,PEDOT:PSS,PFN-Br,12.67,12.67,0.78,73.0,"[<rdkit.Chem.rdchem.Mol object at 0x7f5838dff1b0>, <rdkit.Chem.rdchem.Mol object at 0x7f5838e0c120>, <rdkit.Chem.rdchem.Mol object at 0x7f5838e0cd60>, <rdkit.Chem.rdchem.Mol object at 0x7f5838e0c9e0>, <rdkit.Chem.rdchem.Mol object at 0x7f5838e0c6d0>, <rdkit.Chem.rdchem.Mol object at 0x7f5838e0ccf0>]","[<rdkit.Chem.rdchem.Mol object at 0x7f5838dff370>, <rdkit.Chem.rdchem.Mol object at 0x7f5838e0d700>, <rdkit.Chem.rdchem.Mol object at 0x7f5838dff7d0>, <rdkit.Chem.rdchem.Mol object at 0x7f5838dffae0>, <rdkit.Chem.rdchem.Mol object at 0x7f5838e0cba0>]","[<rdkit.Chem.rdchem.Mol object at 0x7f5838dff1b0>, <rdkit.Chem.rdchem.Mol object at 0x7f5838e0c120>, <rdkit.Chem.rdchem.Mol object at 0x7f5838e0cd60>, <rdkit.Chem.rdchem.Mol object at 0x7f5838e0c9e0>, <rdkit.Chem.rdchem.Mol object at 0x7f5838e0c6d0>, <rdkit.Chem.rdchem.Mol object at 0x7f5838e0ccf0>, '.', <rdkit.Chem.rdchem.Mol object at 0x7f5838dff370>, <rdkit.Chem.rdchem.Mol object at 0x7f5838e0d700>, <rdkit.Chem.rdchem.Mol object at 0x7f5838dff7d0>, <rdkit.Chem.rdchem.Mol object at 0x7f5838dffae0>, <rdkit.Chem.rdchem.Mol object at 0x7f5838e0cba0>]","[0, 0, 0, 0, 0, 3350, 3351, 3352, 3353, 3354, 3355, 1, 3356, 3357, 3358, 3359, 3360]"
PBDB-T-2Cl,IT-4F,-5.51,-3.71,-5.66875,-4.060416666666667,1.0,CB,_,100.0,PEDOT:PSS,PFN-Br,14.29,14.29,0.89,78.0,"[<rdkit.Chem.rdchem.Mol object at 0x7f5838dff990>, <rdkit.Chem.rdchem.Mol object at 0x7f5838e0c040>, <rdkit.Chem.rdchem.Mol object at 0x7f5838e0c200>, <rdkit.Chem.rdchem.Mol object at 0x7f5838e0d1c0>, <rdkit.Chem.rdchem.Mol object at 0x7f5838e0d2a0>, <rdkit.Chem.rdchem.Mol object at 0x7f5838e0ceb0>]","[<rdkit.Chem.rdchem.Mol object at 0x7f5838dff6f0>, <rdkit.Chem.rdchem.Mol object at 0x7f5838e0c350>, <rdkit.Chem.rdchem.Mol object at 0x7f5838dfc900>, <rdkit.Chem.rdchem.Mol object at 0x7f5838e0db60>, <rdkit.Chem.rdchem.Mol object at 0x7f5838e0ca50>]","[<rdkit.Chem.rdchem.Mol object at 0x7f5838dff990>, <rdkit.Chem.rdchem.Mol object at 0x7f5838e0c040>, <rdkit.Chem.rdchem.Mol object at 0x7f5838e0c200>, <rdkit.Chem.rdchem.Mol object at 0x7f5838e0d1c0>, <rdkit.Chem.rdchem.Mol object at 0x7f5838e0d2a0>, <rdkit.Chem.rdchem.Mol object at 0x7f5838e0ceb0>, '.', <rdkit.Chem.rdchem.Mol object at 0x7f5838dff6f0>, <rdkit.Chem.rdchem.Mol object at 0x7f5838e0c350>, <rdkit.Chem.rdchem.Mol object at 0x7f5838dfc900>, <rdkit.Chem.rdchem.Mol object at 0x7f5838e0db60>, <rdkit.Chem.rdchem.Mol object at 0x7f5838e0ca50>]","[0, 0, 0, 0, 0, 3361, 3362, 3363, 3364, 3365, 3366, 1, 3367, 3368, 3369, 3370, 3371]"
PBDB-T-2Cl,IT-4Cl,-5.51,-3.71,-5.75,-4.09,1.0,CF,_,100.0,PEDOT:PSS,PFN-Br,13.37,13.19,0.81,74.0,"[<rdkit.Chem.rdchem.Mol object at 0x7f5838dff450>, <rdkit.Chem.rdchem.Mol object at 0x7f5838e0d930>, <rdkit.Chem.rdchem.Mol object at 0x7f5838e0cb30>, <rdkit.Chem.rdchem.Mol object at 0x7f5838e0c0b0>, <rdkit.Chem.rdchem.Mol object at 0x7f5838e0d000>, <rdkit.Chem.rdchem.Mol object at 0x7f5838e0d070>]","[<rdkit.Chem.rdchem.Mol object at 0x7f5838e0e030>, <rdkit.Chem.rdchem.Mol object at 0x7f5838e0daf0>, <rdkit.Chem.rdchem.Mol object at 0x7f5838dffd80>, <rdkit.Chem.rdchem.Mol object at 0x7f5838e0d690>, <rdkit.Chem.rdchem.Mol object at 0x7f5838e0cdd0>]","[<rdkit.Chem.rdchem.Mol object at 0x7f5838dff450>, <rdkit.Chem.rdchem.Mol object at 0x7f5838e0d930>, <rdkit.Chem.rdchem.Mol object at 0x7f5838e0cb30>, <rdkit.Chem.rdchem.Mol object at 0x7f5838e0c0b0>, <rdkit.Chem.rdchem.Mol object at 0x7f5838e0d000>, <rdkit.Chem.rdchem.Mol object at 0x7f5838e0d070>, '.', <rdkit.Chem.rdchem.Mol object at 0x7f5838e0e030>, <rdkit.Chem.rdchem.Mol object at 0x7f5838e0daf0>, <rdkit.Chem.rdchem.Mol object at 0x7f5838dffd80>, <rdkit.Chem.rdchem.Mol object at 0x7f5838e0d690>, <rdkit.Chem.rdchem.Mol object at 0x7f5838e0cdd0>]","[0, 0, 0, 0, 0, 3372, 3373, 3374, 3375, 3376, 3377, 1, 3378, 3379, 3380, 3381, 3382]"
P3_PDTB-EF-T,IT-4F,-5.54,-3.6,-5.66875,-4.060416666666667,1.0,CB,DIO,25.0,PEDOT:PSS,PFN-Br,11.2,11.2,0.904,61.0,"[<rdkit.Chem.rdchem.Mol object at 0x7f5838e0d7e0>, <rdkit.Chem.rdchem.Mol object at 0x7f5838e0dc40>, <rdkit.Chem.rdchem.Mol object at 0x7f5838e0ce40>, <rdkit.Chem.rdchem.Mol object at 0x7f5838e0dbd0>, <rdkit.Chem.rdchem.Mol object at 0x7f5838e0d4d0>, <rdkit.Chem.rdchem.Mol object at 0x7f5838e0d310>, <rdkit.Chem.rdchem.Mol object at 0x7f5838e0c820>, <rdkit.Chem.rdchem.Mol object at 0x7f5838e0eab0>, <rdkit.Chem.rdchem.Mol object at 0x7f5838e0e960>, <rdkit.Chem.rdchem.Mol object at 0x7f5838e0ef80>]","[<rdkit.Chem.rdchem.Mol object at 0x7f5838e0f1b0>, <rdkit.Chem.rdchem.Mol object at 0x7f5838e0e880>, <rdkit.Chem.rdchem.Mol object at 0x7f5838e0e6c0>, <rdkit.Chem.rdchem.Mol object at 0x7f5838e0d770>, <rdkit.Chem.rdchem.Mol object at 0x7f5838e0de00>]","[<rdkit.Chem.rdchem.Mol object at 0x7f5838e0d7e0>, <rdkit.Chem.rdchem.Mol object at 0x7f5838e0dc40>, <rdkit.Chem.rdchem.Mol object at 0x7f5838e0ce40>, <rdkit.Chem.rdchem.Mol object at 0x7f5838e0dbd0>, <rdkit.Chem.rdchem.Mol object at 0x7f5838e0d4d0>, <rdkit.Chem.rdchem.Mol object at 0x7f5838e0d310>, <rdkit.Chem.rdchem.Mol object at 0x7f5838e0c820>, <rdkit.Chem.rdchem.Mol object at 0x7f5838e0eab0>, <rdkit.Chem.rdchem.Mol object at 0x7f5838e0e960>, <rdkit.Chem.rdchem.Mol object at 0x7f5838e0ef80>, '.', <rdkit.Chem.rdchem.Mol object at 0x7f5838e0f1b0>, <rdkit.Chem.rdchem.Mol object at 0x7f5838e0e880>, <rdkit.Chem.rdchem.Mol object at 0x7f5838e0e6c0>, <rdkit.Chem.rdchem.Mol object at 0x7f5838e0d770>, <rdkit.Chem.rdchem.Mol object at 0x7f5838e0de00>]","[0, 3409, 3410, 3411, 3412, 3413, 3414, 3415, 3416, 3417, 3418, 1, 3419, 3420, 3421, 3422, 3423]"
PBDB-T-SF,NCBDT-4Cl,-5.41,-3.62,-5.6,-4.02,1.0,CF,DIO,110.0,PEDOT:PSS,PDINO,14.1,14.13,0.851,74.3,"[<rdkit.Chem.rdchem.Mol object at 0x7f5838dff680>, <rdkit.Chem.rdchem.Mol object at 0x7f5838e0e2d0>, <rdkit.Chem.rdchem.Mol object at 0x7f5838e0e260>, <rdkit.Chem.rdchem.Mol object at 0x7f5838e0e8f0>, <rdkit.Chem.rdchem.Mol object at 0x7f5838e0ef10>, <rdkit.Chem.rdchem.Mol object at 0x7f5838e0f4c0>]","[<rdkit.Chem.rdchem.Mol object at 0x7f5838e0f760>, <rdkit.Chem.rdchem.Mol object at 0x7f5838e0e1f0>, <rdkit.Chem.rdchem.Mol object at 0x7f5838e0f300>, <rdkit.Chem.rdchem.Mol object at 0x7f5838e0ec70>, <rdkit.Chem.rdchem.Mol object at 0x7f5838e0f370>, <rdkit.Chem.rdchem.Mol object at 0x7f5838e10ac0>]","[<rdkit.Chem.rdchem.Mol object at 0x7f5838dff680>, <rdkit.Chem.rdchem.Mol object at 0x7f5838e0e2d0>, <rdkit.Chem.rdchem.Mol object at 0x7f5838e0e260>, <rdkit.Chem.rdchem.Mol object at 0x7f5838e0e8f0>, <rdkit.Chem.rdchem.Mol object at 0x7f5838e0ef10>, <rdkit.Chem.rdchem.Mol object at 0x7f5838e0f4c0>, '.', <rdkit.Chem.rdchem.Mol object at 0x7f5838e0f760>, <rdkit.Chem.rdchem.Mol object at 0x7f5838e0e1f0>, <rdkit.Chem.rdchem.Mol object at 0x7f5838e0f300>, <rdkit.Chem.rdchem.Mol object at 0x7f5838e0ec70>, <rdkit.Chem.rdchem.Mol object at 0x7f5838e0f370>, <rdkit.Chem.rdchem.Mol object at 0x7f5838e10ac0>]","[0, 0, 0, 0, 3424, 3425, 3426, 3427, 3428, 3429, 1, 3430, 3431, 3432, 3433, 3434, 3435]"