Donor,Acceptor,HOMO_D_eV,LUMO_D_eV,HOMO_A_eV,LUMO_A_eV,D_A_ratio_m_m,solvent,solvent_additive,annealing_temperature,hole_contact_layer,electron_contact_layer,PCE_percent,calc_PCE_percent,Voc_V,FF_percent,Donor_BRICS,Acceptor_BRICS,DA_pair_BRICS,DA_tokenized_BRICS
J52,ITIC,-5.218571428571429,-3.341428571428572,-5.574146341463415,-3.915,1.0,CF,_,100.0,PEDOT:PSS,PDINO,5.51,5.53,0.73,57.8,"[<rdkit.Chem.rdchem.Mol object at 0x7f5838e6b7d0>, <rdkit.Chem.rdchem.Mol object at 0x7f5838e6bd80>, <rdkit.Chem.rdchem.Mol object at 0x7f5838e695b0>, <rdkit.Chem.rdchem.Mol object at 0x7f5838e9c740>, <rdkit.Chem.rdchem.Mol object at 0x7f5838e9c510>, <rdkit.Chem.rdchem.Mol object at 0x7f5838e9ca50>]","[<rdkit.Chem.rdchem.Mol object at 0x7f5838e6b920>, <rdkit.Chem.rdchem.Mol object at 0x7f5838e6b8b0>, <rdkit.Chem.rdchem.Mol object at 0x7f5838e6bae0>, <rdkit.Chem.rdchem.Mol object at 0x7f5838e6bca0>, <rdkit.Chem.rdchem.Mol object at 0x7f5838e9c190>]","[<rdkit.Chem.rdchem.Mol object at 0x7f5838e6b7d0>, <rdkit.Chem.rdchem.Mol object at 0x7f5838e6bd80>, <rdkit.Chem.rdchem.Mol object at 0x7f5838e695b0>, <rdkit.Chem.rdchem.Mol object at 0x7f5838e9c740>, <rdkit.Chem.rdchem.Mol object at 0x7f5838e9c510>, <rdkit.Chem.rdchem.Mol object at 0x7f5838e9ca50>, '.', <rdkit.Chem.rdchem.Mol object at 0x7f5838e6b920>, <rdkit.Chem.rdchem.Mol object at 0x7f5838e6b8b0>, <rdkit.Chem.rdchem.Mol object at 0x7f5838e6bae0>, <rdkit.Chem.rdchem.Mol object at 0x7f5838e6bca0>, <rdkit.Chem.rdchem.Mol object at 0x7f5838e9c190>]","[0, 0, 0, 0, 0, 386, 387, 388, 389, 390, 391, 1, 392, 393, 394, 395, 396]"
J60,ITIC,-5.32,-3.08,-5.574146341463415,-3.915,1.0,CF,_,100.0,PEDOT:PSS,PDINO,8.97,8.97,0.91,60.38,"[<rdkit.Chem.rdchem.Mol object at 0x7f5838e6b450>, <rdkit.Chem.rdchem.Mol object at 0x7f5838e69af0>, <rdkit.Chem.rdchem.Mol object at 0x7f5838e6aa40>, <rdkit.Chem.rdchem.Mol object at 0x7f5838e9c660>, <rdkit.Chem.rdchem.Mol object at 0x7f5838e9c3c0>, <rdkit.Chem.rdchem.Mol object at 0x7f5838e9c2e0>, <rdkit.Chem.rdchem.Mol object at 0x7f5838e9cf90>]","[<rdkit.Chem.rdchem.Mol object at 0x7f5838e6bdf0>, <rdkit.Chem.rdchem.Mol object at 0x7f5838e9c4a0>, <rdkit.Chem.rdchem.Mol object at 0x7f5838e6b140>, <rdkit.Chem.rdchem.Mol object at 0x7f5838e9cdd0>, <rdkit.Chem.rdchem.Mol object at 0x7f5838e9c430>]","[<rdkit.Chem.rdchem.Mol object at 0x7f5838e6b450>, <rdkit.Chem.rdchem.Mol object at 0x7f5838e69af0>, <rdkit.Chem.rdchem.Mol object at 0x7f5838e6aa40>, <rdkit.Chem.rdchem.Mol object at 0x7f5838e9c660>, <rdkit.Chem.rdchem.Mol object at 0x7f5838e9c3c0>, <rdkit.Chem.rdchem.Mol object at 0x7f5838e9c2e0>, <rdkit.Chem.rdchem.Mol object at 0x7f5838e9cf90>, '.', <rdkit.Chem.rdchem.Mol object at 0x7f5838e6bdf0>, <rdkit.Chem.rdchem.Mol object at 0x7f5838e9c4a0>, <rdkit.Chem.rdchem.Mol object at 0x7f5838e6b140>, <rdkit.Chem.rdchem.Mol object at 0x7f5838e9cdd0>, <rdkit.Chem.rdchem.Mol object at 0x7f5838e9c430>]","[0, 0, 0, 0, 397, 398, 399, 400, 401, 402, 403, 1, 404, 405, 406, 407, 408]"
J61,ITIC,-5.303333333333334,-3.151666666666667,-5.574146341463415,-3.915,1.0,CF,_,100.0,PEDOT:PSS,PDINO,9.53,9.54,0.89,61.48,"[<rdkit.Chem.rdchem.Mol object at 0x7f5838e68e40>, <rdkit.Chem.rdchem.Mol object at 0x7f5838e6bed0>, <rdkit.Chem.rdchem.Mol object at 0x7f5838e6b530>, <rdkit.Chem.rdchem.Mol object at 0x7f5838e9cc80>, <rdkit.Chem.rdchem.Mol object at 0x7f5838e9c0b0>, <rdkit.Chem.rdchem.Mol object at 0x7f5838e9c9e0>, <rdkit.Chem.rdchem.Mol object at 0x7f5838e9d4d0>]","[<rdkit.Chem.rdchem.Mol object at 0x7f5838e9d540>, <rdkit.Chem.rdchem.Mol object at 0x7f5838e9d070>, <rdkit.Chem.rdchem.Mol object at 0x7f5838e6a110>, <rdkit.Chem.rdchem.Mol object at 0x7f5838e9c270>, <rdkit.Chem.rdchem.Mol object at 0x7f5838e9ccf0>]","[<rdkit.Chem.rdchem.Mol object at 0x7f5838e68e40>, <rdkit.Chem.rdchem.Mol object at 0x7f5838e6bed0>, <rdkit.Chem.rdchem.Mol object at 0x7f5838e6b530>, <rdkit.Chem.rdchem.Mol object at 0x7f5838e9cc80>, <rdkit.Chem.rdchem.Mol object at 0x7f5838e9c0b0>, <rdkit.Chem.rdchem.Mol object at 0x7f5838e9c9e0>, <rdkit.Chem.rdchem.Mol object at 0x7f5838e9d4d0>, '.', <rdkit.Chem.rdchem.Mol object at 0x7f5838e9d540>, <rdkit.Chem.rdchem.Mol object at 0x7f5838e9d070>, <rdkit.Chem.rdchem.Mol object at 0x7f5838e6a110>, <rdkit.Chem.rdchem.Mol object at 0x7f5838e9c270>, <rdkit.Chem.rdchem.Mol object at 0x7f5838e9ccf0>]","[0, 0, 0, 0, 409, 410, 411, 412, 413, 414, 415, 1, 416, 417, 418, 419, 420]"
J61,ITIC,-5.303333333333334,-3.151666666666667,-5.574146341463415,-3.915,1.0,CF,_,130.0,PEDOT:PSS,PDINO,10.57,10.57,0.898,65.49,"[<rdkit.Chem.rdchem.Mol object at 0x7f5838e6ba00>, <rdkit.Chem.rdchem.Mol object at 0x7f5838e9cb30>, <rdkit.Chem.rdchem.Mol object at 0x7f5838e6a2d0>, <rdkit.Chem.rdchem.Mol object at 0x7f5838e9cba0>, <rdkit.Chem.rdchem.Mol object at 0x7f5838e9d230>, <rdkit.Chem.rdchem.Mol object at 0x7f5838e9cf20>, <rdkit.Chem.rdchem.Mol object at 0x7f5838e9da10>]","[<rdkit.Chem.rdchem.Mol object at 0x7f5838e9d620>, <rdkit.Chem.rdchem.Mol object at 0x7f5838e9cc10>, <rdkit.Chem.rdchem.Mol object at 0x7f5838e9d460>, <rdkit.Chem.rdchem.Mol object at 0x7f5838e9c970>, <rdkit.Chem.rdchem.Mol object at 0x7f5838e9c350>]","[<rdkit.Chem.rdchem.Mol object at 0x7f5838e6ba00>, <rdkit.Chem.rdchem.Mol object at 0x7f5838e9cb30>, <rdkit.Chem.rdchem.Mol object at 0x7f5838e6a2d0>, <rdkit.Chem.rdchem.Mol object at 0x7f5838e9cba0>, <rdkit.Chem.rdchem.Mol object at 0x7f5838e9d230>, <rdkit.Chem.rdchem.Mol object at 0x7f5838e9cf20>, <rdkit.Chem.rdchem.Mol object at 0x7f5838e9da10>, '.', <rdkit.Chem.rdchem.Mol object at 0x7f5838e9d620>, <rdkit.Chem.rdchem.Mol object at 0x7f5838e9cc10>, <rdkit.Chem.rdchem.Mol object at 0x7f5838e9d460>, <rdkit.Chem.rdchem.Mol object at 0x7f5838e9c970>, <rdkit.Chem.rdchem.Mol object at 0x7f5838e9c350>]","[0, 0, 0, 0, 421, 422, 423, 424, 425, 426, 427, 1, 428, 429, 430, 431, 432]"
J61,m-ITIC,-5.303333333333334,-3.151666666666667,-5.526666666666667,-3.8515384615384622,1.0,CF,_,130.0,PEDOT:PSS,PDINO,11.77,11.78,0.912,70.55,"[<rdkit.Chem.rdchem.Mol object at 0x7f5838e6aea0>, <rdkit.Chem.rdchem.Mol object at 0x7f5838e9ceb0>, <rdkit.Chem.rdchem.Mol object at 0x7f5838e9c820>, <rdkit.Chem.rdchem.Mol object at 0x7f5838e9d150>, <rdkit.Chem.rdchem.Mol object at 0x7f5838e9d5b0>, <rdkit.Chem.rdchem.Mol object at 0x7f5838e9d770>, <rdkit.Chem.rdchem.Mol object at 0x7f5838e9df50>]","[<rdkit.Chem.rdchem.Mol object at 0x7f5838e9daf0>, <rdkit.Chem.rdchem.Mol object at 0x7f5838e9d0e0>, <rdkit.Chem.rdchem.Mol object at 0x7f5838e9d310>, <rdkit.Chem.rdchem.Mol object at 0x7f5838e9d9a0>, <rdkit.Chem.rdchem.Mol object at 0x7f5838e9d7e0>]","[<rdkit.Chem.rdchem.Mol object at 0x7f5838e6aea0>, <rdkit.Chem.rdchem.Mol object at 0x7f5838e9ceb0>, <rdkit.Chem.rdchem.Mol object at 0x7f5838e9c820>, <rdkit.Chem.rdchem.Mol object at 0x7f5838e9d150>, <rdkit.Chem.rdchem.Mol object at 0x7f5838e9d5b0>, <rdkit.Chem.rdchem.Mol object at 0x7f5838e9d770>, <rdkit.Chem.rdchem.Mol object at 0x7f5838e9df50>, '.', <rdkit.Chem.rdchem.Mol object at 0x7f5838e9daf0>, <rdkit.Chem.rdchem.Mol object at 0x7f5838e9d0e0>, <rdkit.Chem.rdchem.Mol object at 0x7f5838e9d310>, <rdkit.Chem.rdchem.Mol object at 0x7f5838e9d9a0>, <rdkit.Chem.rdchem.Mol object at 0x7f5838e9d7e0>]","[0, 0, 0, 0, 433, 434, 435, 436, 437, 438, 439, 1, 440, 441, 442, 443, 444]"
J61-F,ITIC,-5.45,-2.91,-5.574146341463415,-3.915,0.667,CF,_,170.0,PEDOT:PSS,PDINO,8.24,8.24,0.95,66.1,"[<rdkit.Chem.rdchem.Mol object at 0x7f5838e68d60>, <rdkit.Chem.rdchem.Mol object at 0x7f5838e9d690>, <rdkit.Chem.rdchem.Mol object at 0x7f5838e9c200>, <rdkit.Chem.rdchem.Mol object at 0x7f5838e9e110>, <rdkit.Chem.rdchem.Mol object at 0x7f5838e9d930>, <rdkit.Chem.rdchem.Mol object at 0x7f5838e9d2a0>, <rdkit.Chem.rdchem.Mol object at 0x7f5838e9dcb0>, <rdkit.Chem.rdchem.Mol object at 0x7f5838e9e500>]","[<rdkit.Chem.rdchem.Mol object at 0x7f5838e9e2d0>, <rdkit.Chem.rdchem.Mol object at 0x7f5838e9ce40>, <rdkit.Chem.rdchem.Mol object at 0x7f5838e9d8c0>, <rdkit.Chem.rdchem.Mol object at 0x7f5838e9e0a0>, <rdkit.Chem.rdchem.Mol object at 0x7f5838e9d1c0>]","[<rdkit.Chem.rdchem.Mol object at 0x7f5838e68d60>, <rdkit.Chem.rdchem.Mol object at 0x7f5838e9d690>, <rdkit.Chem.rdchem.Mol object at 0x7f5838e9c200>, <rdkit.Chem.rdchem.Mol object at 0x7f5838e9e110>, <rdkit.Chem.rdchem.Mol object at 0x7f5838e9d930>, <rdkit.Chem.rdchem.Mol object at 0x7f5838e9d2a0>, <rdkit.Chem.rdchem.Mol object at 0x7f5838e9dcb0>, <rdkit.Chem.rdchem.Mol object at 0x7f5838e9e500>, '.', <rdkit.Chem.rdchem.Mol object at 0x7f5838e9e2d0>, <rdkit.Chem.rdchem.Mol object at 0x7f5838e9ce40>, <rdkit.Chem.rdchem.Mol object at 0x7f5838e9d8c0>, <rdkit.Chem.rdchem.Mol object at 0x7f5838e9e0a0>, <rdkit.Chem.rdchem.Mol object at 0x7f5838e9d1c0>]","[0, 0, 0, 445, 446, 447, 448, 449, 450, 451, 452, 1, 453, 454, 455, 456, 457]"
J62,ITIC,-5.31,-3.08,-5.574146341463415,-3.915,1.5,CF,_,25.0,PEDOT:PSS,PDINO,9.09,9.09,0.904,62.36,"[<rdkit.Chem.rdchem.Mol object at 0x7f5838e9c890>, <rdkit.Chem.rdchem.Mol object at 0x7f5838e9c5f0>, <rdkit.Chem.rdchem.Mol object at 0x7f5838e9c120>, <rdkit.Chem.rdchem.Mol object at 0x7f5838e9dbd0>, <rdkit.Chem.rdchem.Mol object at 0x7f5838e9dd90>, <rdkit.Chem.rdchem.Mol object at 0x7f5838e9dd20>, <rdkit.Chem.rdchem.Mol object at 0x7f5838e9ea40>]","[<rdkit.Chem.rdchem.Mol object at 0x7f5838e9e810>, <rdkit.Chem.rdchem.Mol object at 0x7f5838e9dc40>, <rdkit.Chem.rdchem.Mol object at 0x7f5838e9e6c0>, <rdkit.Chem.rdchem.Mol object at 0x7f5838e9e180>, <rdkit.Chem.rdchem.Mol object at 0x7f5838e9e1f0>]","[<rdkit.Chem.rdchem.Mol object at 0x7f5838e9c890>, <rdkit.Chem.rdchem.Mol object at 0x7f5838e9c5f0>, <rdkit.Chem.rdchem.Mol object at 0x7f5838e9c120>, <rdkit.Chem.rdchem.Mol object at 0x7f5838e9dbd0>, <rdkit.Chem.rdchem.Mol object at 0x7f5838e9dd90>, <rdkit.Chem.rdchem.Mol object at 0x7f5838e9dd20>, <rdkit.Chem.rdchem.Mol object at 0x7f5838e9ea40>, '.', <rdkit.Chem.rdchem.Mol object at 0x7f5838e9e810>, <rdkit.Chem.rdchem.Mol object at 0x7f5838e9dc40>, <rdkit.Chem.rdchem.Mol object at 0x7f5838e9e6c0>, <rdkit.Chem.rdchem.Mol object at 0x7f5838e9e180>, <rdkit.Chem.rdchem.Mol object at 0x7f5838e9e1f0>]","[0, 0, 0, 0, 458, 459, 460, 461, 462, 463, 464, 1, 465, 466, 467, 468, 469]"
J63,ITIC,-5.28,-3.04,-5.574146341463415,-3.915,1.5,CF,_,25.0,PEDOT:PSS,PDINO,7.38,7.36,0.882,53.11,"[<rdkit.Chem.rdchem.Mol object at 0x7f5838e9cd60>, <rdkit.Chem.rdchem.Mol object at 0x7f5838e9db60>, <rdkit.Chem.rdchem.Mol object at 0x7f5838e9dfc0>, <rdkit.Chem.rdchem.Mol object at 0x7f5838e9d3f0>, <rdkit.Chem.rdchem.Mol object at 0x7f5838e9e5e0>, <rdkit.Chem.rdchem.Mol object at 0x7f5838e9cac0>, <rdkit.Chem.rdchem.Mol object at 0x7f5838e9ef80>]","[<rdkit.Chem.rdchem.Mol object at 0x7f5838e9ed50>, <rdkit.Chem.rdchem.Mol object at 0x7f5838e9e260>, <rdkit.Chem.rdchem.Mol object at 0x7f5838e9ec00>, <rdkit.Chem.rdchem.Mol object at 0x7f5838e9e340>, <rdkit.Chem.rdchem.Mol object at 0x7f5838e9e730>]","[<rdkit.Chem.rdchem.Mol object at 0x7f5838e9cd60>, <rdkit.Chem.rdchem.Mol object at 0x7f5838e9db60>, <rdkit.Chem.rdchem.Mol object at 0x7f5838e9dfc0>, <rdkit.Chem.rdchem.Mol object at 0x7f5838e9d3f0>, <rdkit.Chem.rdchem.Mol object at 0x7f5838e9e5e0>, <rdkit.Chem.rdchem.Mol object at 0x7f5838e9cac0>, <rdkit.Chem.rdchem.Mol object at 0x7f5838e9ef80>, '.', <rdkit.Chem.rdchem.Mol object at 0x7f5838e9ed50>, <rdkit.Chem.rdchem.Mol object at 0x7f5838e9e260>, <rdkit.Chem.rdchem.Mol object at 0x7f5838e9ec00>, <rdkit.Chem.rdchem.Mol object at 0x7f5838e9e340>, <rdkit.Chem.rdchem.Mol object at 0x7f5838e9e730>]","[0, 0, 0, 0, 470, 471, 472, 473, 474, 475, 476, 1, 477, 478, 479, 480, 481]"
J64,ITIC,-5.33,-3.09,-5.574146341463415,-3.915,1.5,CF,_,25.0,PEDOT:PSS,PDINO,7.51,7.51,0.908,54.32,"[<rdkit.Chem.rdchem.Mol object at 0x7f5838e9e570>, <rdkit.Chem.rdchem.Mol object at 0x7f5838e9eab0>, <rdkit.Chem.rdchem.Mol object at 0x7f5838e9de00>, <rdkit.Chem.rdchem.Mol object at 0x7f5838e9eb90>, <rdkit.Chem.rdchem.Mol object at 0x7f5838e9e030>, <rdkit.Chem.rdchem.Mol object at 0x7f5838e9f140>, <rdkit.Chem.rdchem.Mol object at 0x7f5838e9ee30>, <rdkit.Chem.rdchem.Mol object at 0x7f5838e9f5a0>]","[<rdkit.Chem.rdchem.Mol object at 0x7f5838e9f370>, <rdkit.Chem.rdchem.Mol object at 0x7f5838e9e960>, <rdkit.Chem.rdchem.Mol object at 0x7f5838e9da80>, <rdkit.Chem.rdchem.Mol object at 0x7f5838e9f060>, <rdkit.Chem.rdchem.Mol object at 0x7f5838e9e420>]","[<rdkit.Chem.rdchem.Mol object at 0x7f5838e9e570>, <rdkit.Chem.rdchem.Mol object at 0x7f5838e9eab0>, <rdkit.Chem.rdchem.Mol object at 0x7f5838e9de00>, <rdkit.Chem.rdchem.Mol object at 0x7f5838e9eb90>, <rdkit.Chem.rdchem.Mol object at 0x7f5838e9e030>, <rdkit.Chem.rdchem.Mol object at 0x7f5838e9f140>, <rdkit.Chem.rdchem.Mol object at 0x7f5838e9ee30>, <rdkit.Chem.rdchem.Mol object at 0x7f5838e9f5a0>, '.', <rdkit.Chem.rdchem.Mol object at 0x7f5838e9f370>, <rdkit.Chem.rdchem.Mol object at 0x7f5838e9e960>, <rdkit.Chem.rdchem.Mol object at 0x7f5838e9da80>, <rdkit.Chem.rdchem.Mol object at 0x7f5838e9f060>, <rdkit.Chem.rdchem.Mol object at 0x7f5838e9e420>]","[0, 0, 0, 482, 483, 484, 485, 486, 487, 488, 489, 1, 490, 491, 492, 493, 494]"
J81,m-ITIC,-5.43,-2.98,-5.526666666666667,-3.8515384615384622,1.0,CF,_,160.0,PEDOT:PSS,PDINO,10.6,10.6,0.95,73.08,"[<rdkit.Chem.rdchem.Mol object at 0x7f5838e9d700>, <rdkit.Chem.rdchem.Mol object at 0x7f5838e9edc0>, <rdkit.Chem.rdchem.Mol object at 0x7f5838e9de70>, <rdkit.Chem.rdchem.Mol object at 0x7f5838e9ec70>, <rdkit.Chem.rdchem.Mol object at 0x7f5838e9eff0>, <rdkit.Chem.rdchem.Mol object at 0x7f5838e9f6f0>]","[<rdkit.Chem.rdchem.Mol object at 0x7f5838e9ece0>, <rdkit.Chem.rdchem.Mol object at 0x7f5838e9f290>, <rdkit.Chem.rdchem.Mol object at 0x7f5838e9f300>, <rdkit.Chem.rdchem.Mol object at 0x7f5838e9e650>, <rdkit.Chem.rdchem.Mol object at 0x7f5838e9e9d0>]","[<rdkit.Chem.rdchem.Mol object at 0x7f5838e9d700>, <rdkit.Chem.rdchem.Mol object at 0x7f5838e9edc0>, <rdkit.Chem.rdchem.Mol object at 0x7f5838e9de70>, <rdkit.Chem.rdchem.Mol object at 0x7f5838e9ec70>, <rdkit.Chem.rdchem.Mol object at 0x7f5838e9eff0>, <rdkit.Chem.rdchem.Mol object at 0x7f5838e9f6f0>, '.', <rdkit.Chem.rdchem.Mol object at 0x7f5838e9ece0>, <rdkit.Chem.rdchem.Mol object at 0x7f5838e9f290>, <rdkit.Chem.rdchem.Mol object at 0x7f5838e9f300>, <rdkit.Chem.rdchem.Mol object at 0x7f5838e9e650>, <rdkit.Chem.rdchem.Mol object at 0x7f5838e9e9d0>]","[0, 0, 0, 0, 0, 495, 496, 497, 498, 499, 500, 1, 501, 502, 503, 504, 505]"
J81,m-ITIC,-5.43,-2.98,-5.526666666666667,-3.8515384615384622,1.0,CF,_,160.0,PEDOT:PSS,PDINO,11.05,11.04,0.96,69.83,"[<rdkit.Chem.rdchem.Mol object at 0x7f5838e9f840>, <rdkit.Chem.rdchem.Mol object at 0x7f5838e9e490>, <rdkit.Chem.rdchem.Mol object at 0x7f5838e9f220>, <rdkit.Chem.rdchem.Mol object at 0x7f5838e9e7a0>, <rdkit.Chem.rdchem.Mol object at 0x7f5838e9dee0>, <rdkit.Chem.rdchem.Mol object at 0x7f5838e9fb50>]","[<rdkit.Chem.rdchem.Mol object at 0x7f5838e9f680>, <rdkit.Chem.rdchem.Mol object at 0x7f5838e9c6d0>, <rdkit.Chem.rdchem.Mol object at 0x7f5838e9f610>, <rdkit.Chem.rdchem.Mol object at 0x7f5838e9c900>, <rdkit.Chem.rdchem.Mol object at 0x7f5838e9d850>]","[<rdkit.Chem.rdchem.Mol object at 0x7f5838e9f840>, <rdkit.Chem.rdchem.Mol object at 0x7f5838e9e490>, <rdkit.Chem.rdchem.Mol object at 0x7f5838e9f220>, <rdkit.Chem.rdchem.Mol object at 0x7f5838e9e7a0>, <rdkit.Chem.rdchem.Mol object at 0x7f5838e9dee0>, <rdkit.Chem.rdchem.Mol object at 0x7f5838e9fb50>, '.', <rdkit.Chem.rdchem.Mol object at 0x7f5838e9f680>, <rdkit.Chem.rdchem.Mol object at 0x7f5838e9c6d0>, <rdkit.Chem.rdchem.Mol object at 0x7f5838e9f610>, <rdkit.Chem.rdchem.Mol object at 0x7f5838e9c900>, <rdkit.Chem.rdchem.Mol object at 0x7f5838e9d850>]","[0, 0, 0, 0, 0, 506, 507, 508, 509, 510, 511, 1, 512, 513, 514, 515, 516]"
PBDT(T)[2F]T,ITIC,-5.22,-3.22,-5.574146341463415,-3.915,1.0,CB,_,160.0,MoOx,ZnO,9.8,9.85,0.94,62.0,"[<rdkit.Chem.rdchem.Mol object at 0x7f5838e9fd10>, <rdkit.Chem.rdchem.Mol object at 0x7f5838e9c7b0>, <rdkit.Chem.rdchem.Mol object at 0x7f5838e9f0d0>, <rdkit.Chem.rdchem.Mol object at 0x7f5838e9f1b0>]","[<rdkit.Chem.rdchem.Mol object at 0x7f5838e9fae0>, <rdkit.Chem.rdchem.Mol object at 0x7f5838e9fe60>, <rdkit.Chem.rdchem.Mol object at 0x7f5838e9eea0>, <rdkit.Chem.rdchem.Mol object at 0x7f5838e9fca0>, <rdkit.Chem.rdchem.Mol object at 0x7f5838e9fd80>]","[<rdkit.Chem.rdchem.Mol object at 0x7f5838e9fd10>, <rdkit.Chem.rdchem.Mol object at 0x7f5838e9c7b0>, <rdkit.Chem.rdchem.Mol object at 0x7f5838e9f0d0>, <rdkit.Chem.rdchem.Mol object at 0x7f5838e9f1b0>, '.', <rdkit.Chem.rdchem.Mol object at 0x7f5838e9fae0>, <rdkit.Chem.rdchem.Mol object at 0x7f5838e9fe60>, <rdkit.Chem.rdchem.Mol object at 0x7f5838e9eea0>, <rdkit.Chem.rdchem.Mol object at 0x7f5838e9fca0>, <rdkit.Chem.rdchem.Mol object at 0x7f5838e9fd80>]","[0, 0, 0, 0, 0, 0, 0, 517, 518, 519, 520, 1, 521, 522, 523, 524, 525]"
PBDT[2F]T,ITIC,-5.29,-3.19,-5.574146341463415,-3.915,1.5,CB,_,25.0,MoOx,ZnO,5.8,5.78,0.94,53.0,"[<rdkit.Chem.rdchem.Mol object at 0x7f5838e9f3e0>, <rdkit.Chem.rdchem.Mol object at 0x7f5838e9f8b0>, <rdkit.Chem.rdchem.Mol object at 0x7f5838e9f920>, <rdkit.Chem.rdchem.Mol object at 0x7f5838e9fa70>]","[<rdkit.Chem.rdchem.Mol object at 0x7f5838e9f7d0>, <rdkit.Chem.rdchem.Mol object at 0x7f5838e9fbc0>, <rdkit.Chem.rdchem.Mol object at 0x7f5838e9e880>, <rdkit.Chem.rdchem.Mol object at 0x7f5838e9fa00>, <rdkit.Chem.rdchem.Mol object at 0x7f5838e7c510>]","[<rdkit.Chem.rdchem.Mol object at 0x7f5838e9f3e0>, <rdkit.Chem.rdchem.Mol object at 0x7f5838e9f8b0>, <rdkit.Chem.rdchem.Mol object at 0x7f5838e9f920>, <rdkit.Chem.rdchem.Mol object at 0x7f5838e9fa70>, '.', <rdkit.Chem.rdchem.Mol object at 0x7f5838e9f7d0>, <rdkit.Chem.rdchem.Mol object at 0x7f5838e9fbc0>, <rdkit.Chem.rdchem.Mol object at 0x7f5838e9e880>, <rdkit.Chem.rdchem.Mol object at 0x7f5838e9fa00>, <rdkit.Chem.rdchem.Mol object at 0x7f5838e7c510>]","[0, 0, 0, 0, 0, 0, 0, 526, 527, 528, 529, 1, 530, 531, 532, 533, 534]"
PBDT[2H]T,ITIC,-5.03,-2.93,-5.574146341463415,-3.915,1.0,CB,_,160.0,MoOx,ZnO,2.5,2.46,0.79,41.0,"[<rdkit.Chem.rdchem.Mol object at 0x7f5838e9fc30>, <rdkit.Chem.rdchem.Mol object at 0x7f5838e9eb20>, <rdkit.Chem.rdchem.Mol object at 0x7f5838e9d000>, <rdkit.Chem.rdchem.Mol object at 0x7f5838e9d380>]","[<rdkit.Chem.rdchem.Mol object at 0x7f5838e9e3b0>, <rdkit.Chem.rdchem.Mol object at 0x7f5838e7c3c0>, <rdkit.Chem.rdchem.Mol object at 0x7f5838e9f450>, <rdkit.Chem.rdchem.Mol object at 0x7f5838e9f4c0>, <rdkit.Chem.rdchem.Mol object at 0x7f5838e7c900>]","[<rdkit.Chem.rdchem.Mol object at 0x7f5838e9fc30>, <rdkit.Chem.rdchem.Mol object at 0x7f5838e9eb20>, <rdkit.Chem.rdchem.Mol object at 0x7f5838e9d000>, <rdkit.Chem.rdchem.Mol object at 0x7f5838e9d380>, '.', <rdkit.Chem.rdchem.Mol object at 0x7f5838e9e3b0>, <rdkit.Chem.rdchem.Mol object at 0x7f5838e7c3c0>, <rdkit.Chem.rdchem.Mol object at 0x7f5838e9f450>, <rdkit.Chem.rdchem.Mol object at 0x7f5838e9f4c0>, <rdkit.Chem.rdchem.Mol object at 0x7f5838e7c900>]","[0, 0, 0, 0, 0, 0, 0, 535, 536, 537, 538, 1, 539, 540, 541, 542, 543]"