Donor,Acceptor,HOMO_D_eV,LUMO_D_eV,HOMO_A_eV,LUMO_A_eV,D_A_ratio_m_m,solvent,solvent_additive,annealing_temperature,hole_contact_layer,electron_contact_layer,PCE_percent,calc_PCE_percent,Voc_V,FF_percent,Donor_BRICS,Acceptor_BRICS,DA_pair_BRICS,DA_tokenized_BRICS
J71,BTA3,-5.353333333333333,-3.4318181818181825,-5.415,-3.445,1.0,CF,_,150.0,PEDOT:PSS,Ca,8.6,8.6,1.2,69.0,"['[8*]CC(CCCCCC)CCCCCCCC', '[14*]c1ccc(C)s1', '[14*]c1ccc([Si](CCC)(CCC)CCC)s1', '[14*]c1ccc([14*])s1', '[9*]n1nc2c([16*])c(F)c(F)c([16*])c2n1', '[14*]c1cc2c([16*])c3sc(C)cc3c([16*])c2s1']","['[8*]CCCCCCCC', '[8*]CC', '[8*]CCCCCC', '[9*]n1nc2c([16*])ccc(/C=c3\\sc(=C(C#N)C#N)n([9*])c3=O)c2n1', '[14*]c1cc2c(s1)-c1cc3c(cc1C2(c1ccc([16*])cc1)c1ccc([16*])cc1)-c1sc([14*])cc1C3(c1ccc([16*])cc1)c1ccc([16*])cc1']","['[8*]CC(CCCCCC)CCCCCCCC', '[14*]c1ccc(C)s1', '[14*]c1ccc([Si](CCC)(CCC)CCC)s1', '[14*]c1ccc([14*])s1', '[9*]n1nc2c([16*])c(F)c(F)c([16*])c2n1', '[14*]c1cc2c([16*])c3sc(C)cc3c([16*])c2s1', '.', '[8*]CCCCCCCC', '[8*]CC', '[8*]CCCCCC', '[9*]n1nc2c([16*])ccc(/C=c3\\sc(=C(C#N)C#N)n([9*])c3=O)c2n1', '[14*]c1cc2c(s1)-c1cc3c(cc1C2(c1ccc([16*])cc1)c1ccc([16*])cc1)-c1sc([14*])cc1C3(c1ccc([16*])cc1)c1ccc([16*])cc1']","[0, 0, 0, 0, 0, 17, 6, 18, 7, 19, 9, 1, 21, 22, 13, 208, 38]"
J71,BTA703,-5.353333333333333,-3.4318181818181825,-5.5,-3.9,2.0,CF,_,120.0,PEDOT:PSS,Ca,1.21,1.21,0.85,40.0,"['[8*]CC(CCCCCC)CCCCCCCC', '[14*]c1ccc(C)s1', '[14*]c1ccc([Si](CCC)(CCC)CCC)s1', '[14*]c1ccc([14*])s1', '[9*]n1nc2c([16*])c(F)c(F)c([16*])c2n1', '[14*]c1cc2c([16*])c3sc(C)cc3c([16*])c2s1']","['[7*]C(C#N)C#N', '[7*]C[8*]', '[7*]C1OC(C)(C)C([15*])C1C#N', '[8*]CCCCCCCC', '[8*]CCCCCC', '[9*]n1nc2c([16*])ccc([16*])c2n1', '[14*]c1cc2c(s1)-c1cc3c(cc1C2(c1ccc([16*])cc1)c1ccc([16*])cc1)-c1sc([14*])cc1C3(c1ccc([16*])cc1)c1ccc([16*])cc1']","['[8*]CC(CCCCCC)CCCCCCCC', '[14*]c1ccc(C)s1', '[14*]c1ccc([Si](CCC)(CCC)CCC)s1', '[14*]c1ccc([14*])s1', '[9*]n1nc2c([16*])c(F)c(F)c([16*])c2n1', '[14*]c1cc2c([16*])c3sc(C)cc3c([16*])c2s1', '.', '[7*]C(C#N)C#N', '[7*]C[8*]', '[7*]C1OC(C)(C)C([15*])C1C#N', '[8*]CCCCCCCC', '[8*]CCCCCC', '[9*]n1nc2c([16*])ccc([16*])c2n1', '[14*]c1cc2c(s1)-c1cc3c(cc1C2(c1ccc([16*])cc1)c1ccc([16*])cc1)-c1sc([14*])cc1C3(c1ccc([16*])cc1)c1ccc([16*])cc1']","[0, 0, 0, 17, 6, 18, 7, 19, 9, 1, 10, 12, 209, 21, 13, 47, 38]"
PTB7-Th,Py-1,-5.204782608695651,-3.5391891891891896,-5.79,-3.76,0.667,CF,_,25.0,MoOx,ZnO,5.88,5.82,0.74,65.0,"['[3*]O[3*]', '[4*]CC(CC)CCCC', '[1*]C([6*])=O', '[8*]CC(CC)CCCC', '[14*]c1sc2c([14*])sc(C)c2c1F', '[14*]c1ccc([14*])s1', '[14*]c1cc2c([16*])c3sc(C)cc3c([16*])c2s1']","['[7*]C(C#N)C#N', '[7*]C1C(=O)c2cc(F)c(F)cc2C1[7*]', '[7*]C[8*]', '[8*]CCCCCC', '[14*]c1cc2c(s1)-c1cc3ccc4c5c(cc6ccc(c1C2(c1ccc([16*])cc1)c1ccc([16*])cc1)c3c64)-c1sc([14*])cc1C5(c1ccc([16*])cc1)c1ccc([16*])cc1']","['[3*]O[3*]', '[4*]CC(CC)CCCC', '[1*]C([6*])=O', '[8*]CC(CC)CCCC', '[14*]c1sc2c([14*])sc(C)c2c1F', '[14*]c1ccc([14*])s1', '[14*]c1cc2c([16*])c3sc(C)cc3c([16*])c2s1', '.', '[7*]C(C#N)C#N', '[7*]C1C(=O)c2cc(F)c(F)cc2C1[7*]', '[7*]C[8*]', '[8*]CCCCCC', '[14*]c1cc2c(s1)-c1cc3ccc4c5c(cc6ccc(c1C2(c1ccc([16*])cc1)c1ccc([16*])cc1)c3c64)-c1sc([14*])cc1C5(c1ccc([16*])cc1)c1ccc([16*])cc1']","[0, 0, 0, 0, 2, 3, 4, 5, 35, 7, 9, 1, 10, 42, 12, 13, 210]"
PTB7-Th,Py-2,-5.204782608695651,-3.5391891891891896,-5.83,-3.78,1.0,CF,_,25.0,MoOx,ZnO,3.47,3.41,0.75,47.0,"['[3*]O[3*]', '[4*]CC(CC)CCCC', '[1*]C([6*])=O', '[8*]CC(CC)CCCC', '[14*]c1sc2c([14*])sc(C)c2c1F', '[14*]c1ccc([14*])s1', '[14*]c1cc2c([16*])c3sc(C)cc3c([16*])c2s1']","['[7*]C(C#N)C#N', '[7*]C1C(=O)c2cc(F)c(F)cc2C1[7*]', '[7*]C[8*]', '[8*]CCCCCC', '[14*]c1cc2c(s1)-c1cc3ccc4cc5c(c6ccc(c1C2(c1ccc([16*])cc1)c1ccc([16*])cc1)c3c46)C(c1ccc([16*])cc1)(c1ccc([16*])cc1)c1cc([14*])sc1-5']","['[3*]O[3*]', '[4*]CC(CC)CCCC', '[1*]C([6*])=O', '[8*]CC(CC)CCCC', '[14*]c1sc2c([14*])sc(C)c2c1F', '[14*]c1ccc([14*])s1', '[14*]c1cc2c([16*])c3sc(C)cc3c([16*])c2s1', '.', '[7*]C(C#N)C#N', '[7*]C1C(=O)c2cc(F)c(F)cc2C1[7*]', '[7*]C[8*]', '[8*]CCCCCC', '[14*]c1cc2c(s1)-c1cc3ccc4cc5c(c6ccc(c1C2(c1ccc([16*])cc1)c1ccc([16*])cc1)c3c46)C(c1ccc([16*])cc1)(c1ccc([16*])cc1)c1cc([14*])sc1-5']","[0, 0, 0, 0, 2, 3, 4, 5, 35, 7, 9, 1, 10, 42, 12, 13, 211]"
PBB-T,IT-2F,-5.4,-3.3,-5.665,-4.095,0.833,CB,_,150.0,PEDOT:PSS,PDINO,13.3,13.31,0.91,70.0,"['[4*]CC(CCCC)CCCCCC', '[8*]CC(CC)CCCC', '[11*]S[11*]', '[14*]c1cc([16*])c(C)s1', '[14*]c1ccc([14*])s1', '[14*]c1nc2cc3sc([14*])nc3cc2s1', '[14*]c1cc([16*])c([14*])s1', '[14*]c1cc2c([16*])c3sc(C)cc3c([16*])c2s1']","['[7*]C(C#N)C#N', '[7*]C1C(=O)c2cc(F)c(F)cc2C1[7*]', '[7*]C[8*]', '[8*]CCCCCC', '[14*]c1cc2sc3c(c2s1)C(c1ccc([16*])cc1)(c1ccc([16*])cc1)c1cc2c(cc1-3)C(c1ccc([16*])cc1)(c1ccc([16*])cc1)c1c-2sc2cc([14*])sc12']","['[4*]CC(CCCC)CCCCCC', '[8*]CC(CC)CCCC', '[11*]S[11*]', '[14*]c1cc([16*])c(C)s1', '[14*]c1ccc([14*])s1', '[14*]c1nc2cc3sc([14*])nc3cc2s1', '[14*]c1cc([16*])c([14*])s1', '[14*]c1cc2c([16*])c3sc(C)cc3c([16*])c2s1', '.', '[7*]C(C#N)C#N', '[7*]C1C(=O)c2cc(F)c(F)cc2C1[7*]', '[7*]C[8*]', '[8*]CCCCCC', '[14*]c1cc2sc3c(c2s1)C(c1ccc([16*])cc1)(c1ccc([16*])cc1)c1cc2c(cc1-3)C(c1ccc([16*])cc1)(c1ccc([16*])cc1)c1c-2sc2cc([14*])sc12']","[0, 0, 0, 33, 5, 25, 57, 7, 212, 34, 9, 1, 10, 42, 12, 13, 15]"
PFBDB-T,C8-ITIC,-5.47,-3.46,-5.63,-3.91,0.8,CB,_,25.0,MoOx,ZnO,12.5,12.57,0.93,69.0,"['[8*]C(CC)CCCCCC', '[14*]c1cc(F)c(C)s1', '[14*]c1ccc([14*])s1', '[14*]c1sc([14*])c2c1C(=O)c1c([14*])sc([14*])c1C2=O', '[14*]c1cc(F)c([14*])s1', '[14*]c1cc2c([16*])c3sc(C)cc3c([16*])c2s1']","['[7*]C(C#N)C#N', '[7*]C1C(=O)c2ccccc2C1[7*]', '[7*]C[8*]', '[8*]CCCCCC', '[14*]c1cc2c(s1)-c1sc3cc4c5c(sc4cc3c1C2(c1ccc([16*])cc1)c1ccc([16*])cc1)-c1sc([14*])cc1C5(c1ccc([16*])cc1)c1ccc([16*])cc1']","['[8*]C(CC)CCCCCC', '[14*]c1cc(F)c(C)s1', '[14*]c1ccc([14*])s1', '[14*]c1sc([14*])c2c1C(=O)c1c([14*])sc([14*])c1C2=O', '[14*]c1cc(F)c([14*])s1', '[14*]c1cc2c([16*])c3sc(C)cc3c([16*])c2s1', '.', '[7*]C(C#N)C#N', '[7*]C1C(=O)c2ccccc2C1[7*]', '[7*]C[8*]', '[8*]CCCCCC', '[14*]c1cc2c(s1)-c1sc3cc4c5c(sc4cc3c1C2(c1ccc([16*])cc1)c1ccc([16*])cc1)-c1sc([14*])cc1C5(c1ccc([16*])cc1)c1ccc([16*])cc1']","[0, 0, 0, 0, 0, 85, 213, 7, 30, 24, 9, 1, 10, 11, 12, 13, 65]"
P_TBTT-BTT,ICz-Rd2,-5.15,-3.58,-5.59,-3.88,1.0,CF,_,40.0,PEDOT:PSS,PFN,7.88,7.88,1.04,54.0,"['[8*]CCCCCCCC', '[14*]c1ccc([14*])s1', '[14*]c1ccc(C)s1', '[16*]c1ccc([16*])c2nsnc12', '[14*]c1cc2c(s1)c1sc(C)cc1c1c([14*])sc([14*])c21']","['[8*]CC', '[7*]C1SC(=S)N([10*])C1=O', '[8*]CC(CC)CCCC', '[7*]C[8*]', '[16*]c1ccc([16*])c2nsnc12', '[9*]n1c2cc([16*])ccc2c2cc3c(cc21)c1ccc([16*])cc1n3[9*]']","['[8*]CCCCCCCC', '[14*]c1ccc([14*])s1', '[14*]c1ccc(C)s1', '[16*]c1ccc([16*])c2nsnc12', '[14*]c1cc2c(s1)c1sc(C)cc1c1c([14*])sc([14*])c21', '.', '[8*]CC', '[7*]C1SC(=S)N([10*])C1=O', '[8*]CC(CC)CCCC', '[7*]C[8*]', '[16*]c1ccc([16*])c2nsnc12', '[9*]n1c2cc([16*])ccc2c2cc3c(cc21)c1ccc([16*])cc1n3[9*]']","[0, 0, 0, 0, 0, 21, 7, 6, 128, 214, 1, 22, 76, 5, 12, 128, 215]"
P_TBTT-BTT,ICz-RdCN2,-5.15,-3.58,-5.58,-3.98,1.0,CF,_,40.0,PEDOT:PSS,PFN,9.76,9.76,1.01,62.0,"['[8*]CCCCCCCC', '[14*]c1ccc([14*])s1', '[14*]c1ccc(C)s1', '[16*]c1ccc([16*])c2nsnc12', '[14*]c1cc2c(s1)c1sc(C)cc1c1c([14*])sc([14*])c21']","['[8*]CC(CC)CCCC', '[8*]CC', '[9*]n1c(=C(C#N)C#N)s/c(=C\\c2ccc([16*])c3nsnc23)c1=O', '[9*]n1c2cc([16*])ccc2c2cc3c(cc21)c1ccc([16*])cc1n3[9*]']","['[8*]CCCCCCCC', '[14*]c1ccc([14*])s1', '[14*]c1ccc(C)s1', '[16*]c1ccc([16*])c2nsnc12', '[14*]c1cc2c(s1)c1sc(C)cc1c1c([14*])sc([14*])c21', '.', '[8*]CC(CC)CCCC', '[8*]CC', '[9*]n1c(=C(C#N)C#N)s/c(=C\\c2ccc([16*])c3nsnc23)c1=O', '[9*]n1c2cc([16*])ccc2c2cc3c(cc21)c1ccc([16*])cc1n3[9*]']","[0, 0, 0, 0, 0, 0, 0, 21, 7, 6, 128, 214, 1, 5, 22, 95, 215]"
PBZ,IT-4F,-5.18,-3.22,-5.66875,-4.060416666666667,1.0,Toluene,PN,25.0,MoOx,ZnO,6.4,6.45,0.6,63.2,"['[8*]CC(CCCCCC)CCCCCCCC', '[8*]CC(CC)CCCC', '[14*]c1ccc([14*])s1', '[14*]c1ccc(C)s1', '[9*]n1nc2c([16*])c(F)c(F)c([16*])c2n1', '[14*]c1cc2c([16*])c3sc(C)cc3c([16*])c2s1']","['[7*]C(C#N)C#N', '[7*]C1C(=O)c2cc(F)c(F)cc2C1[7*]', '[7*]C[8*]', '[8*]CCCCCC', '[14*]c1cc2sc3c(c2s1)C(c1ccc([16*])cc1)(c1ccc([16*])cc1)c1cc2c(cc1-3)C(c1ccc([16*])cc1)(c1ccc([16*])cc1)c1c-2sc2cc([14*])sc12']","['[8*]CC(CCCCCC)CCCCCCCC', '[8*]CC(CC)CCCC', '[14*]c1ccc([14*])s1', '[14*]c1ccc(C)s1', '[9*]n1nc2c([16*])c(F)c(F)c([16*])c2n1', '[14*]c1cc2c([16*])c3sc(C)cc3c([16*])c2s1', '.', '[7*]C(C#N)C#N', '[7*]C1C(=O)c2cc(F)c(F)cc2C1[7*]', '[7*]C[8*]', '[8*]CCCCCC', '[14*]c1cc2sc3c(c2s1)C(c1ccc([16*])cc1)(c1ccc([16*])cc1)c1cc2c(cc1-3)C(c1ccc([16*])cc1)(c1ccc([16*])cc1)c1c-2sc2cc([14*])sc12']","[0, 0, 0, 0, 0, 17, 5, 7, 6, 19, 9, 1, 10, 42, 12, 13, 15]"
PBZ-Cl,IT-4F,-5.39,-3.41,-5.66875,-4.060416666666667,1.0,Toluene,PN,25.0,MoOx,ZnO,9.7,9.67,0.8,68.3,"['[8*]CC(CCCCCC)CCCCCCCC', '[8*]CC(CC)CCCC', '[14*]c1cc(Cl)c([14*])s1', '[14*]c1ccc(C)s1', '[14*]c1ccc([14*])s1', '[9*]n1nc2c([16*])c(F)c(F)c([16*])c2n1', '[14*]c1cc2c([16*])c3sc(C)cc3c([16*])c2s1']","['[7*]C(C#N)C#N', '[7*]C1C(=O)c2cc(F)c(F)cc2C1[7*]', '[7*]C[8*]', '[8*]CCCCCC', '[14*]c1cc2sc3c(c2s1)C(c1ccc([16*])cc1)(c1ccc([16*])cc1)c1cc2c(cc1-3)C(c1ccc([16*])cc1)(c1ccc([16*])cc1)c1c-2sc2cc([14*])sc12']","['[8*]CC(CCCCCC)CCCCCCCC', '[8*]CC(CC)CCCC', '[14*]c1cc(Cl)c([14*])s1', '[14*]c1ccc(C)s1', '[14*]c1ccc([14*])s1', '[9*]n1nc2c([16*])c(F)c(F)c([16*])c2n1', '[14*]c1cc2c([16*])c3sc(C)cc3c([16*])c2s1', '.', '[7*]C(C#N)C#N', '[7*]C1C(=O)c2cc(F)c(F)cc2C1[7*]', '[7*]C[8*]', '[8*]CCCCCC', '[14*]c1cc2sc3c(c2s1)C(c1ccc([16*])cc1)(c1ccc([16*])cc1)c1cc2c(cc1-3)C(c1ccc([16*])cc1)(c1ccc([16*])cc1)c1c-2sc2cc([14*])sc12']","[0, 0, 0, 0, 17, 5, 193, 6, 7, 19, 9, 1, 10, 42, 12, 13, 15]"
PBZ-ClSi,IT-4F,-5.56,-3.5,-5.66875,-4.060416666666667,1.0,Toluene,PN,25.0,MoOx,ZnO,12.8,12.77,0.93,71.5,"['[8*]CC(CCCCCC)CCCCCCCC', '[14*]c1ccc(C)s1', '[14*]c1cc(Cl)c([Si](CCC)(CCC)CCC)s1', '[14*]c1ccc([14*])s1', '[9*]n1nc2c([16*])c(F)c(F)c([16*])c2n1', '[14*]c1cc2c([16*])c3sc(C)cc3c([16*])c2s1']","['[7*]C(C#N)C#N', '[7*]C1C(=O)c2cc(F)c(F)cc2C1[7*]', '[7*]C[8*]', '[8*]CCCCCC', '[14*]c1cc2sc3c(c2s1)C(c1ccc([16*])cc1)(c1ccc([16*])cc1)c1cc2c(cc1-3)C(c1ccc([16*])cc1)(c1ccc([16*])cc1)c1c-2sc2cc([14*])sc12']","['[8*]CC(CCCCCC)CCCCCCCC', '[14*]c1ccc(C)s1', '[14*]c1cc(Cl)c([Si](CCC)(CCC)CCC)s1', '[14*]c1ccc([14*])s1', '[9*]n1nc2c([16*])c(F)c(F)c([16*])c2n1', '[14*]c1cc2c([16*])c3sc(C)cc3c([16*])c2s1', '.', '[7*]C(C#N)C#N', '[7*]C1C(=O)c2cc(F)c(F)cc2C1[7*]', '[7*]C[8*]', '[8*]CCCCCC', '[14*]c1cc2sc3c(c2s1)C(c1ccc([16*])cc1)(c1ccc([16*])cc1)c1cc2c(cc1-3)C(c1ccc([16*])cc1)(c1ccc([16*])cc1)c1c-2sc2cc([14*])sc12']","[0, 0, 0, 0, 0, 17, 6, 216, 7, 19, 9, 1, 10, 42, 12, 13, 15]"
PT1,ITIC,-5.46,-3.59,-5.574146341463415,-3.915,0.667,CB,_,25.0,MoOx,ZnO,2.13,2.14,0.95,39.0,"['[8*]CCCCCCCC', '[8*]CC(CC)CCCC', '[14*]c1sc([14*])c2c1C(=O)c1c([14*])sc(C)c1C2=O', '[14*]c1ccc([14*])s1', '[14*]c1cc2c([16*])c3sc(C)cc3c([16*])c2s1']","['[7*]C(C#N)C#N', '[7*]C1C(=O)c2ccccc2C1[7*]', '[7*]C[8*]', '[8*]CCCCCC', '[14*]c1cc2sc3c(c2s1)C(c1ccc([16*])cc1)(c1ccc([16*])cc1)c1cc2c(cc1-3)C(c1ccc([16*])cc1)(c1ccc([16*])cc1)c1c-2sc2cc([14*])sc12']","['[8*]CCCCCCCC', '[8*]CC(CC)CCCC', '[14*]c1sc([14*])c2c1C(=O)c1c([14*])sc(C)c1C2=O', '[14*]c1ccc([14*])s1', '[14*]c1cc2c([16*])c3sc(C)cc3c([16*])c2s1', '.', '[7*]C(C#N)C#N', '[7*]C1C(=O)c2ccccc2C1[7*]', '[7*]C[8*]', '[8*]CCCCCC', '[14*]c1cc2sc3c(c2s1)C(c1ccc([16*])cc1)(c1ccc([16*])cc1)c1cc2c(cc1-3)C(c1ccc([16*])cc1)(c1ccc([16*])cc1)c1c-2sc2cc([14*])sc12']","[0, 0, 0, 0, 0, 0, 21, 5, 217, 7, 9, 1, 10, 11, 12, 13, 15]"
PT2,ITIC,-5.35,-3.58,-5.574146341463415,-3.915,0.667,CB,_,25.0,MoOx,ZnO,9.0,8.78,0.84,64.0,"['[8*]CCCCCCCC', '[8*]CC(CC)CCCC', '[14*]c1ccc(C)s1', '[14*]c1ccc([14*])s1', '[14*]c1sc([14*])c2c1C(=O)c1c([14*])sc([14*])c1C2=O', '[14*]c1cc2c([16*])c3sc(C)cc3c([16*])c2s1']","['[7*]C(C#N)C#N', '[7*]C1C(=O)c2ccccc2C1[7*]', '[7*]C[8*]', '[8*]CCCCCC', '[14*]c1cc2sc3c(c2s1)C(c1ccc([16*])cc1)(c1ccc([16*])cc1)c1cc2c(cc1-3)C(c1ccc([16*])cc1)(c1ccc([16*])cc1)c1c-2sc2cc([14*])sc12']","['[8*]CCCCCCCC', '[8*]CC(CC)CCCC', '[14*]c1ccc(C)s1', '[14*]c1ccc([14*])s1', '[14*]c1sc([14*])c2c1C(=O)c1c([14*])sc([14*])c1C2=O', '[14*]c1cc2c([16*])c3sc(C)cc3c([16*])c2s1', '.', '[7*]C(C#N)C#N', '[7*]C1C(=O)c2ccccc2C1[7*]', '[7*]C[8*]', '[8*]CCCCCC', '[14*]c1cc2sc3c(c2s1)C(c1ccc([16*])cc1)(c1ccc([16*])cc1)c1cc2c(cc1-3)C(c1ccc([16*])cc1)(c1ccc([16*])cc1)c1c-2sc2cc([14*])sc12']","[0, 0, 0, 0, 0, 21, 5, 6, 7, 30, 9, 1, 10, 11, 12, 13, 15]"
PT3,ITIC,-5.37,-3.54,-5.574146341463415,-3.915,0.667,CB,_,25.0,MoOx,ZnO,9.21,9.29,0.88,68.0,"['[8*]CCCCCCCC', '[8*]CC(CC)CCCC', '[8*]CCCCCC', '[14*]c1cc2sc(C)c([16*])c2s1', '[14*]c1ccc([14*])s1', '[14*]c1sc([14*])c2c1C(=O)c1c([14*])sc([14*])c1C2=O', '[14*]c1cc2sc([14*])c([16*])c2s1', '[14*]c1cc2c([16*])c3sc(C)cc3c([16*])c2s1']","['[7*]C(C#N)C#N', '[7*]C1C(=O)c2ccccc2C1[7*]', '[7*]C[8*]', '[8*]CCCCCC', '[14*]c1cc2sc3c(c2s1)C(c1ccc([16*])cc1)(c1ccc([16*])cc1)c1cc2c(cc1-3)C(c1ccc([16*])cc1)(c1ccc([16*])cc1)c1c-2sc2cc([14*])sc12']","['[8*]CCCCCCCC', '[8*]CC(CC)CCCC', '[8*]CCCCCC', '[14*]c1cc2sc(C)c([16*])c2s1', '[14*]c1ccc([14*])s1', '[14*]c1sc([14*])c2c1C(=O)c1c([14*])sc([14*])c1C2=O', '[14*]c1cc2sc([14*])c([16*])c2s1', '[14*]c1cc2c([16*])c3sc(C)cc3c([16*])c2s1', '.', '[7*]C(C#N)C#N', '[7*]C1C(=O)c2ccccc2C1[7*]', '[7*]C[8*]', '[8*]CCCCCC', '[14*]c1cc2sc3c(c2s1)C(c1ccc([16*])cc1)(c1ccc([16*])cc1)c1cc2c(cc1-3)C(c1ccc([16*])cc1)(c1ccc([16*])cc1)c1c-2sc2cc([14*])sc12']","[0, 0, 0, 21, 5, 13, 177, 7, 30, 179, 9, 1, 10, 11, 12, 13, 15]"
PBDB-T,DF-TCIC,-5.297714285714285,-3.4170000000000003,-5.37,-3.76,0.833,CF,CN,140.0,MoOx,PFN,8.23,8.18,0.86,58.0,"['[8*]CC(CC)CCCC', '[14*]c1ccc(C)s1', '[14*]c1ccc([14*])s1', '[14*]c1sc([14*])c2c1C(=O)c1c([14*])sc([14*])c1C2=O', '[14*]c1cc2c([16*])c3sc(C)cc3c([16*])c2s1']","['[7*]C(C#N)C#N', '[7*]C1C(=O)c2ccccc2C1[7*]', '[7*]C[8*]', '[14*]c1cc2c(s1)-c1sc([14*])cc1C2(CC(CC)CCCC)CC(CC)CCCC', '[14*]c1sc([14*])c(F)c1F']","['[8*]CC(CC)CCCC', '[14*]c1ccc(C)s1', '[14*]c1ccc([14*])s1', '[14*]c1sc([14*])c2c1C(=O)c1c([14*])sc([14*])c1C2=O', '[14*]c1cc2c([16*])c3sc(C)cc3c([16*])c2s1', '.', '[7*]C(C#N)C#N', '[7*]C1C(=O)c2ccccc2C1[7*]', '[7*]C[8*]', '[14*]c1cc2c(s1)-c1sc([14*])cc1C2(CC(CC)CCCC)CC(CC)CCCC', '[14*]c1sc([14*])c(F)c1F']","[0, 0, 0, 0, 0, 0, 5, 6, 7, 30, 9, 1, 10, 11, 12, 168, 75]"
PBDB-T,HF-TCIC,-5.297714285714285,-3.4170000000000003,-5.43,-3.83,0.833,CF,CN,120.0,MoOx,PFN,9.86,9.9,0.76,65.0,"['[8*]CC(CC)CCCC', '[14*]c1ccc(C)s1', '[14*]c1ccc([14*])s1', '[14*]c1sc([14*])c2c1C(=O)c1c([14*])sc([14*])c1C2=O', '[14*]c1cc2c([16*])c3sc(C)cc3c([16*])c2s1']","['[7*]C(C#N)C#N', '[7*]C1C(=O)c2cc(F)c(F)cc2C1[7*]', '[7*]C[8*]', '[14*]c1cc2c(s1)-c1sc([14*])cc1C2(CC(CC)CCCC)CC(CC)CCCC', '[14*]c1sc([14*])c(F)c1F']","['[8*]CC(CC)CCCC', '[14*]c1ccc(C)s1', '[14*]c1ccc([14*])s1', '[14*]c1sc([14*])c2c1C(=O)c1c([14*])sc([14*])c1C2=O', '[14*]c1cc2c([16*])c3sc(C)cc3c([16*])c2s1', '.', '[7*]C(C#N)C#N', '[7*]C1C(=O)c2cc(F)c(F)cc2C1[7*]', '[7*]C[8*]', '[14*]c1cc2c(s1)-c1sc([14*])cc1C2(CC(CC)CCCC)CC(CC)CCCC', '[14*]c1sc([14*])c(F)c1F']","[0, 0, 0, 0, 0, 0, 5, 6, 7, 30, 9, 1, 10, 42, 12, 168, 75]"
PTB-EDOT,ITIC-Th,-5.33,-3.63,-5.673333333333334,-3.908888888888889,0.667,MeTHF,_,100.0,MoOx,ZnO,8.59,8.59,0.84,66.5,"['[3*]O[3*]', '[4*]CC(CC)CCCC', '[1*]C([6*])=O', '[8*]CC(CC)CCCC', '[14*]c1sc2c([14*])sc(C)c2c1F', '[14*]c1sc([14*])c2c1OCCO2', '[14*]c1cc2c([16*])c3sc(C)cc3c([16*])c2s1']","['[7*]C(C#N)C#N', '[7*]C1C(=O)c2ccccc2C1[7*]', '[7*]C[8*]', '[8*]CCCCCC', '[14*]c1ccc(C2(c3ccc([14*])s3)c3cc4c(cc3-c3sc5cc([14*])sc5c32)C(c2ccc([14*])s2)(c2ccc([14*])s2)c2c-4sc3cc([14*])sc23)s1']","['[3*]O[3*]', '[4*]CC(CC)CCCC', '[1*]C([6*])=O', '[8*]CC(CC)CCCC', '[14*]c1sc2c([14*])sc(C)c2c1F', '[14*]c1sc([14*])c2c1OCCO2', '[14*]c1cc2c([16*])c3sc(C)cc3c([16*])c2s1', '.', '[7*]C(C#N)C#N', '[7*]C1C(=O)c2ccccc2C1[7*]', '[7*]C[8*]', '[8*]CCCCCC', '[14*]c1ccc(C2(c3ccc([14*])s3)c3cc4c(cc3-c3sc5cc([14*])sc5c32)C(c2ccc([14*])s2)(c2ccc([14*])s2)c2c-4sc3cc([14*])sc23)s1']","[0, 0, 0, 0, 2, 3, 4, 5, 35, 156, 9, 1, 10, 11, 12, 13, 67]"
P3HT,BIBT-NI,-5.057777777777777,-2.989444444444445,-5.62,-3.65,0.833,o-DCB,_,110.0,MoOx,ZnO,2.1,2.09,0.77,44.2,"['[8*]CCCCCC', '[14*]c1sc(C)cc1[16*]', '[14*]c1cc([16*])c(C)s1', '[14*]c1cc([16*])c([14*])s1']","['[8*]CC(CC)CCCC', '[10*]N1C(=O)c2cccc3c([16*])ccc(c23)C1=O', '[14*]c1ccc([14*])s1', '[10*]N1C(=O)c2c(c([16*])c3nsnc3c2[16*])C1=O']","['[8*]CCCCCC', '[14*]c1sc(C)cc1[16*]', '[14*]c1cc([16*])c(C)s1', '[14*]c1cc([16*])c([14*])s1', '.', '[8*]CC(CC)CCCC', '[10*]N1C(=O)c2cccc3c([16*])ccc(c23)C1=O', '[14*]c1ccc([14*])s1', '[10*]N1C(=O)c2c(c([16*])c3nsnc3c2[16*])C1=O']","[0, 0, 0, 0, 0, 0, 0, 0, 13, 103, 57, 34, 1, 5, 89, 7, 219]"
PBDT-F-2TC,IT-4F,-5.55,-3.58,-5.66875,-4.060416666666667,1.0,CB,_,110.0,PEDOT:PSS,PFN-Br,10.75,10.75,0.91,62.51,"['[3*]O[3*]', '[4*]CC(CCCCCC)CCCCCCCC', '[1*]C([6*])=O', '[8*]CC(CC)CCCC', '[14*]c1ccc(C)s1', '[14*]c1cc(F)c([14*])s1', '[14*]c1cc([16*])c([14*])s1', '[14*]c1cc2c([16*])c3sc(C)cc3c([16*])c2s1']","['[7*]C(C#N)C#N', '[7*]C1C(=O)c2cc(F)c(F)cc2C1[7*]', '[7*]C[8*]', '[8*]CCCCCC', '[14*]c1cc2sc3c(c2s1)C(c1ccc([16*])cc1)(c1ccc([16*])cc1)c1cc2c(cc1-3)C(c1ccc([16*])cc1)(c1ccc([16*])cc1)c1c-2sc2cc([14*])sc12']","['[3*]O[3*]', '[4*]CC(CCCCCC)CCCCCCCC', '[1*]C([6*])=O', '[8*]CC(CC)CCCC', '[14*]c1ccc(C)s1', '[14*]c1cc(F)c([14*])s1', '[14*]c1cc([16*])c([14*])s1', '[14*]c1cc2c([16*])c3sc(C)cc3c([16*])c2s1', '.', '[7*]C(C#N)C#N', '[7*]C1C(=O)c2cc(F)c(F)cc2C1[7*]', '[7*]C[8*]', '[8*]CCCCCC', '[14*]c1cc2sc3c(c2s1)C(c1ccc([16*])cc1)(c1ccc([16*])cc1)c1cc2c(cc1-3)C(c1ccc([16*])cc1)(c1ccc([16*])cc1)c1c-2sc2cc([14*])sc12']","[0, 0, 0, 2, 200, 4, 5, 6, 24, 34, 9, 1, 10, 42, 12, 13, 15]"
PBDT-SF-2TC,IT-4F,-5.57,-3.59,-5.66875,-4.060416666666667,1.0,CB,_,110.0,PEDOT:PSS,PFN-Br,11.07,11.08,0.93,57.45,"['[3*]OS[11*]', '[4*]CC(CCCC)CCCCCC', '[4*]CC(CC)CCCC', '[1*]C([6*])=O', '[11*]S[11*]', '[14*]c1ccc(C)s1', '[14*]c1cc(F)c([14*])s1', '[14*]c1cc([16*])c([14*])s1', '[14*]c1cc2c([16*])c3sc(C)cc3c([16*])c2s1']","['[7*]C(C#N)C#N', '[7*]C1C(=O)c2cc(F)c(F)cc2C1[7*]', '[7*]C[8*]', '[8*]CCCCCC', '[14*]c1cc2sc3c(c2s1)C(c1ccc([16*])cc1)(c1ccc([16*])cc1)c1cc2c(cc1-3)C(c1ccc([16*])cc1)(c1ccc([16*])cc1)c1c-2sc2cc([14*])sc12']","['[3*]OS[11*]', '[4*]CC(CCCC)CCCCCC', '[4*]CC(CC)CCCC', '[1*]C([6*])=O', '[11*]S[11*]', '[14*]c1ccc(C)s1', '[14*]c1cc(F)c([14*])s1', '[14*]c1cc([16*])c([14*])s1', '[14*]c1cc2c([16*])c3sc(C)cc3c([16*])c2s1', '.', '[7*]C(C#N)C#N', '[7*]C1C(=O)c2cc(F)c(F)cc2C1[7*]', '[7*]C[8*]', '[8*]CCCCCC', '[14*]c1cc2sc3c(c2s1)C(c1ccc([16*])cc1)(c1ccc([16*])cc1)c1cc2c(cc1-3)C(c1ccc([16*])cc1)(c1ccc([16*])cc1)c1c-2sc2cc([14*])sc12']","[0, 0, 32, 33, 3, 4, 25, 6, 24, 34, 9, 1, 10, 42, 12, 13, 15]"
PDBT-F,IT-M,-5.39,-3.57,-5.513571428571429,-3.808,1.0,CF,DIO,100.0,PEDOT:PSS,PFN-Br,10.52,10.52,0.97,63.71,"['[8*]CC(CC)CCCC', '[14*]c1ccc(C)s1', '[14*]c1cc(F)c([14*])s1', '[14*]c1sc([14*])c2c1C(=O)c1c([14*])sc([14*])c1C2=O', '[14*]c1ccc([14*])s1', '[14*]c1cc2sc3c([16*])c4c(sc5cc(C)sc54)c([16*])c3c2s1']","['[7*]C(C#N)C#N', '[7*]C1C(=O)c2ccc(C)cc2C1[7*]', '[7*]C[8*]', '[8*]CCCCCC', '[14*]c1cc2sc3c(c2s1)C(c1ccc([16*])cc1)(c1ccc([16*])cc1)c1cc2c(cc1-3)C(c1ccc([16*])cc1)(c1ccc([16*])cc1)c1c-2sc2cc([14*])sc12']","['[8*]CC(CC)CCCC', '[14*]c1ccc(C)s1', '[14*]c1cc(F)c([14*])s1', '[14*]c1sc([14*])c2c1C(=O)c1c([14*])sc([14*])c1C2=O', '[14*]c1ccc([14*])s1', '[14*]c1cc2sc3c([16*])c4c(sc5cc(C)sc54)c([16*])c3c2s1', '.', '[7*]C(C#N)C#N', '[7*]C1C(=O)c2ccc(C)cc2C1[7*]', '[7*]C[8*]', '[8*]CCCCCC', '[14*]c1cc2sc3c(c2s1)C(c1ccc([16*])cc1)(c1ccc([16*])cc1)c1cc2c(cc1-3)C(c1ccc([16*])cc1)(c1ccc([16*])cc1)c1c-2sc2cc([14*])sc12']","[0, 0, 0, 0, 0, 5, 6, 24, 30, 7, 31, 1, 10, 16, 12, 13, 15]"