Donor,Acceptor,HOMO_D_eV,LUMO_D_eV,HOMO_A_eV,LUMO_A_eV,D_A_ratio_m_m,solvent,solvent_additive,annealing_temperature,hole_contact_layer,electron_contact_layer,PCE_percent,calc_PCE_percent,Voc_V,FF_percent,Donor_BRICS,Acceptor_BRICS,DA_pair_BRICS,DA_tokenized_BRICS
J52,IT-M,-5.218571428571429,-3.341428571428572,-5.513571428571429,-3.808,1.0,CB,DIO,150.0,PEDOT:PSS,PFN-Br,9.4,9.38,0.843,65.1,"[<rdkit.Chem.rdchem.Mol object at 0x7f5838e771b0>, <rdkit.Chem.rdchem.Mol object at 0x7f5838e761f0>, <rdkit.Chem.rdchem.Mol object at 0x7f5838e751c0>, <rdkit.Chem.rdchem.Mol object at 0x7f5838e75850>, <rdkit.Chem.rdchem.Mol object at 0x7f5838e75d20>, <rdkit.Chem.rdchem.Mol object at 0x7f5838e77370>]","[<rdkit.Chem.rdchem.Mol object at 0x7f5838e77610>, <rdkit.Chem.rdchem.Mol object at 0x7f5838e744a0>, <rdkit.Chem.rdchem.Mol object at 0x7f5838e75700>, <rdkit.Chem.rdchem.Mol object at 0x7f5838e76110>, <rdkit.Chem.rdchem.Mol object at 0x7f5838e77290>]","[<rdkit.Chem.rdchem.Mol object at 0x7f5838e771b0>, <rdkit.Chem.rdchem.Mol object at 0x7f5838e761f0>, <rdkit.Chem.rdchem.Mol object at 0x7f5838e751c0>, <rdkit.Chem.rdchem.Mol object at 0x7f5838e75850>, <rdkit.Chem.rdchem.Mol object at 0x7f5838e75d20>, <rdkit.Chem.rdchem.Mol object at 0x7f5838e77370>, '.', <rdkit.Chem.rdchem.Mol object at 0x7f5838e77610>, <rdkit.Chem.rdchem.Mol object at 0x7f5838e744a0>, <rdkit.Chem.rdchem.Mol object at 0x7f5838e75700>, <rdkit.Chem.rdchem.Mol object at 0x7f5838e76110>, <rdkit.Chem.rdchem.Mol object at 0x7f5838e77290>]","[0, 0, 0, 0, 0, 789, 790, 791, 792, 793, 794, 1, 795, 796, 797, 798, 799]"
J52,IEICO,-5.218571428571429,-3.341428571428572,-5.32,-3.95,1.0,CB,DIO,150.0,PEDOT:PSS,PFN-Br,6.5,6.53,0.848,51.0,"[<rdkit.Chem.rdchem.Mol object at 0x7f5838e76c00>, <rdkit.Chem.rdchem.Mol object at 0x7f5838e775a0>, <rdkit.Chem.rdchem.Mol object at 0x7f5838e76960>, <rdkit.Chem.rdchem.Mol object at 0x7f5838e760a0>, <rdkit.Chem.rdchem.Mol object at 0x7f5838e76c70>, <rdkit.Chem.rdchem.Mol object at 0x7f5838e769d0>]","[<rdkit.Chem.rdchem.Mol object at 0x7f5838e77680>, <rdkit.Chem.rdchem.Mol object at 0x7f5838e767a0>, <rdkit.Chem.rdchem.Mol object at 0x7f5838e77df0>, <rdkit.Chem.rdchem.Mol object at 0x7f5838e77220>, <rdkit.Chem.rdchem.Mol object at 0x7f5838e74f90>, <rdkit.Chem.rdchem.Mol object at 0x7f5838e76dc0>, <rdkit.Chem.rdchem.Mol object at 0x7f5838f2c5f0>, <rdkit.Chem.rdchem.Mol object at 0x7f5838f2d3f0>]","[<rdkit.Chem.rdchem.Mol object at 0x7f5838e76c00>, <rdkit.Chem.rdchem.Mol object at 0x7f5838e775a0>, <rdkit.Chem.rdchem.Mol object at 0x7f5838e76960>, <rdkit.Chem.rdchem.Mol object at 0x7f5838e760a0>, <rdkit.Chem.rdchem.Mol object at 0x7f5838e76c70>, <rdkit.Chem.rdchem.Mol object at 0x7f5838e769d0>, '.', <rdkit.Chem.rdchem.Mol object at 0x7f5838e77680>, <rdkit.Chem.rdchem.Mol object at 0x7f5838e767a0>, <rdkit.Chem.rdchem.Mol object at 0x7f5838e77df0>, <rdkit.Chem.rdchem.Mol object at 0x7f5838e77220>, <rdkit.Chem.rdchem.Mol object at 0x7f5838e74f90>, <rdkit.Chem.rdchem.Mol object at 0x7f5838e76dc0>, <rdkit.Chem.rdchem.Mol object at 0x7f5838f2c5f0>, <rdkit.Chem.rdchem.Mol object at 0x7f5838f2d3f0>]","[0, 0, 800, 801, 802, 803, 804, 805, 1, 806, 807, 808, 809, 810, 811, 812, 813]"
J71,ITVIC,-5.353333333333333,-3.4318181818181825,-5.46,-3.97,0.833,CF,_,160.0,PEDOT:PSS,PDINO,7.34,7.42,0.89,57.64,"[<rdkit.Chem.rdchem.Mol object at 0x7f5838e77c30>, <rdkit.Chem.rdchem.Mol object at 0x7f5838e77f40>, <rdkit.Chem.rdchem.Mol object at 0x7f5838f2c820>, <rdkit.Chem.rdchem.Mol object at 0x7f5838e76ab0>, <rdkit.Chem.rdchem.Mol object at 0x7f5838f2c350>, <rdkit.Chem.rdchem.Mol object at 0x7f5838f2c660>]","[<rdkit.Chem.rdchem.Mol object at 0x7f5838f2c0b0>, <rdkit.Chem.rdchem.Mol object at 0x7f5838f2c270>, <rdkit.Chem.rdchem.Mol object at 0x7f5838f2c900>, <rdkit.Chem.rdchem.Mol object at 0x7f5838e77840>, <rdkit.Chem.rdchem.Mol object at 0x7f5838f2d1c0>, <rdkit.Chem.rdchem.Mol object at 0x7f5838f2c430>]","[<rdkit.Chem.rdchem.Mol object at 0x7f5838e77c30>, <rdkit.Chem.rdchem.Mol object at 0x7f5838e77f40>, <rdkit.Chem.rdchem.Mol object at 0x7f5838f2c820>, <rdkit.Chem.rdchem.Mol object at 0x7f5838e76ab0>, <rdkit.Chem.rdchem.Mol object at 0x7f5838f2c350>, <rdkit.Chem.rdchem.Mol object at 0x7f5838f2c660>, '.', <rdkit.Chem.rdchem.Mol object at 0x7f5838f2c0b0>, <rdkit.Chem.rdchem.Mol object at 0x7f5838f2c270>, <rdkit.Chem.rdchem.Mol object at 0x7f5838f2c900>, <rdkit.Chem.rdchem.Mol object at 0x7f5838e77840>, <rdkit.Chem.rdchem.Mol object at 0x7f5838f2d1c0>, <rdkit.Chem.rdchem.Mol object at 0x7f5838f2c430>]","[0, 0, 0, 0, 837, 838, 839, 840, 841, 842, 1, 843, 844, 845, 846, 847, 848]"
J71,MeIC2,-5.353333333333333,-3.4318181818181825,-5.56,-3.97,1.0,CF,_,150.0,PEDOT:PSS,PDIN,10.2,10.38,0.885,69.4,"[<rdkit.Chem.rdchem.Mol object at 0x7f5838e75310>, <rdkit.Chem.rdchem.Mol object at 0x7f5838f2cc10>, <rdkit.Chem.rdchem.Mol object at 0x7f5838f2c7b0>, <rdkit.Chem.rdchem.Mol object at 0x7f5838e770d0>, <rdkit.Chem.rdchem.Mol object at 0x7f5838f2d460>, <rdkit.Chem.rdchem.Mol object at 0x7f5838f2c3c0>]","[<rdkit.Chem.rdchem.Mol object at 0x7f5838f2c120>, <rdkit.Chem.rdchem.Mol object at 0x7f5838f2d230>, <rdkit.Chem.rdchem.Mol object at 0x7f5838e75b60>, <rdkit.Chem.rdchem.Mol object at 0x7f5838f2d000>, <rdkit.Chem.rdchem.Mol object at 0x7f5838f2c890>]","[<rdkit.Chem.rdchem.Mol object at 0x7f5838e75310>, <rdkit.Chem.rdchem.Mol object at 0x7f5838f2cc10>, <rdkit.Chem.rdchem.Mol object at 0x7f5838f2c7b0>, <rdkit.Chem.rdchem.Mol object at 0x7f5838e770d0>, <rdkit.Chem.rdchem.Mol object at 0x7f5838f2d460>, <rdkit.Chem.rdchem.Mol object at 0x7f5838f2c3c0>, '.', <rdkit.Chem.rdchem.Mol object at 0x7f5838f2c120>, <rdkit.Chem.rdchem.Mol object at 0x7f5838f2d230>, <rdkit.Chem.rdchem.Mol object at 0x7f5838e75b60>, <rdkit.Chem.rdchem.Mol object at 0x7f5838f2d000>, <rdkit.Chem.rdchem.Mol object at 0x7f5838f2c890>]","[0, 0, 0, 0, 0, 849, 850, 851, 852, 853, 854, 1, 855, 856, 857, 858, 859]"
J70,m-ITIC,-5.37,-2.91,-5.526666666666667,-3.8515384615384622,0.667,CF,_,150.0,PEDOT:PSS,PDINO,11.62,11.62,0.92,69.82,"[<rdkit.Chem.rdchem.Mol object at 0x7f5838e77a70>, <rdkit.Chem.rdchem.Mol object at 0x7f5838f2cc80>, <rdkit.Chem.rdchem.Mol object at 0x7f5838f2c9e0>, <rdkit.Chem.rdchem.Mol object at 0x7f5838f2d620>, <rdkit.Chem.rdchem.Mol object at 0x7f5838f2c040>, <rdkit.Chem.rdchem.Mol object at 0x7f5838f2d7e0>]","[<rdkit.Chem.rdchem.Mol object at 0x7f5838f2c2e0>, <rdkit.Chem.rdchem.Mol object at 0x7f5838f2cb30>, <rdkit.Chem.rdchem.Mol object at 0x7f5838f2c970>, <rdkit.Chem.rdchem.Mol object at 0x7f5838f2ccf0>, <rdkit.Chem.rdchem.Mol object at 0x7f5838f2c190>]","[<rdkit.Chem.rdchem.Mol object at 0x7f5838e77a70>, <rdkit.Chem.rdchem.Mol object at 0x7f5838f2cc80>, <rdkit.Chem.rdchem.Mol object at 0x7f5838f2c9e0>, <rdkit.Chem.rdchem.Mol object at 0x7f5838f2d620>, <rdkit.Chem.rdchem.Mol object at 0x7f5838f2c040>, <rdkit.Chem.rdchem.Mol object at 0x7f5838f2d7e0>, '.', <rdkit.Chem.rdchem.Mol object at 0x7f5838f2c2e0>, <rdkit.Chem.rdchem.Mol object at 0x7f5838f2cb30>, <rdkit.Chem.rdchem.Mol object at 0x7f5838f2c970>, <rdkit.Chem.rdchem.Mol object at 0x7f5838f2ccf0>, <rdkit.Chem.rdchem.Mol object at 0x7f5838f2c190>]","[0, 0, 0, 0, 0, 860, 861, 862, 863, 864, 865, 1, 866, 867, 868, 869, 870]"
J71,m-ITIC,-5.353333333333333,-3.4318181818181825,-5.526666666666667,-3.8515384615384622,0.667,CF,_,150.0,PEDOT:PSS,PDINO,12.05,12.05,0.944,70.59,"[<rdkit.Chem.rdchem.Mol object at 0x7f5838e765e0>, <rdkit.Chem.rdchem.Mol object at 0x7f5838f2d4d0>, <rdkit.Chem.rdchem.Mol object at 0x7f5838f2d2a0>, <rdkit.Chem.rdchem.Mol object at 0x7f5838f2da80>, <rdkit.Chem.rdchem.Mol object at 0x7f5838f2ce40>, <rdkit.Chem.rdchem.Mol object at 0x7f5838f2dcb0>]","[<rdkit.Chem.rdchem.Mol object at 0x7f5838f2db60>, <rdkit.Chem.rdchem.Mol object at 0x7f5838f2cdd0>, <rdkit.Chem.rdchem.Mol object at 0x7f5838f2daf0>, <rdkit.Chem.rdchem.Mol object at 0x7f5838f2d700>, <rdkit.Chem.rdchem.Mol object at 0x7f5838f2cba0>]","[<rdkit.Chem.rdchem.Mol object at 0x7f5838e765e0>, <rdkit.Chem.rdchem.Mol object at 0x7f5838f2d4d0>, <rdkit.Chem.rdchem.Mol object at 0x7f5838f2d2a0>, <rdkit.Chem.rdchem.Mol object at 0x7f5838f2da80>, <rdkit.Chem.rdchem.Mol object at 0x7f5838f2ce40>, <rdkit.Chem.rdchem.Mol object at 0x7f5838f2dcb0>, '.', <rdkit.Chem.rdchem.Mol object at 0x7f5838f2db60>, <rdkit.Chem.rdchem.Mol object at 0x7f5838f2cdd0>, <rdkit.Chem.rdchem.Mol object at 0x7f5838f2daf0>, <rdkit.Chem.rdchem.Mol object at 0x7f5838f2d700>, <rdkit.Chem.rdchem.Mol object at 0x7f5838f2cba0>]","[0, 0, 0, 0, 0, 871, 872, 873, 874, 875, 876, 1, 877, 878, 879, 880, 881]"
J72,m-ITIC,-5.42,-3.29,-5.526666666666667,-3.8515384615384622,0.667,CF,_,150.0,PEDOT:PSS,PDINO,10.23,10.23,0.962,65.03,"[<rdkit.Chem.rdchem.Mol object at 0x7f5838e77b50>, <rdkit.Chem.rdchem.Mol object at 0x7f5838f2c6d0>, <rdkit.Chem.rdchem.Mol object at 0x7f5838f2d770>, <rdkit.Chem.rdchem.Mol object at 0x7f5838f2dd90>, <rdkit.Chem.rdchem.Mol object at 0x7f5838f2df50>, <rdkit.Chem.rdchem.Mol object at 0x7f5838f2d9a0>]","[<rdkit.Chem.rdchem.Mol object at 0x7f5838f2cd60>, <rdkit.Chem.rdchem.Mol object at 0x7f5838f2d150>, <rdkit.Chem.rdchem.Mol object at 0x7f5838f2d540>, <rdkit.Chem.rdchem.Mol object at 0x7f5838f2dc40>, <rdkit.Chem.rdchem.Mol object at 0x7f5838f2d930>]","[<rdkit.Chem.rdchem.Mol object at 0x7f5838e77b50>, <rdkit.Chem.rdchem.Mol object at 0x7f5838f2c6d0>, <rdkit.Chem.rdchem.Mol object at 0x7f5838f2d770>, <rdkit.Chem.rdchem.Mol object at 0x7f5838f2dd90>, <rdkit.Chem.rdchem.Mol object at 0x7f5838f2df50>, <rdkit.Chem.rdchem.Mol object at 0x7f5838f2d9a0>, '.', <rdkit.Chem.rdchem.Mol object at 0x7f5838f2cd60>, <rdkit.Chem.rdchem.Mol object at 0x7f5838f2d150>, <rdkit.Chem.rdchem.Mol object at 0x7f5838f2d540>, <rdkit.Chem.rdchem.Mol object at 0x7f5838f2dc40>, <rdkit.Chem.rdchem.Mol object at 0x7f5838f2d930>]","[0, 0, 0, 0, 0, 882, 883, 884, 885, 886, 887, 1, 888, 889, 890, 891, 892]"
J73,m-ITIC,-5.46,-2.92,-5.526666666666667,-3.8515384615384622,0.667,CF,_,150.0,PEDOT:PSS,PDINO,10.71,10.71,0.974,66.87,"[<rdkit.Chem.rdchem.Mol object at 0x7f5838e77920>, <rdkit.Chem.rdchem.Mol object at 0x7f5838f2d380>, <rdkit.Chem.rdchem.Mol object at 0x7f5838f2dd20>, <rdkit.Chem.rdchem.Mol object at 0x7f5838f2e2d0>, <rdkit.Chem.rdchem.Mol object at 0x7f5838f2e1f0>, <rdkit.Chem.rdchem.Mol object at 0x7f5838f2e110>]","[<rdkit.Chem.rdchem.Mol object at 0x7f5838f2cac0>, <rdkit.Chem.rdchem.Mol object at 0x7f5838f2d310>, <rdkit.Chem.rdchem.Mol object at 0x7f5838f2de00>, <rdkit.Chem.rdchem.Mol object at 0x7f5838f2d850>, <rdkit.Chem.rdchem.Mol object at 0x7f5838f2c200>]","[<rdkit.Chem.rdchem.Mol object at 0x7f5838e77920>, <rdkit.Chem.rdchem.Mol object at 0x7f5838f2d380>, <rdkit.Chem.rdchem.Mol object at 0x7f5838f2dd20>, <rdkit.Chem.rdchem.Mol object at 0x7f5838f2e2d0>, <rdkit.Chem.rdchem.Mol object at 0x7f5838f2e1f0>, <rdkit.Chem.rdchem.Mol object at 0x7f5838f2e110>, '.', <rdkit.Chem.rdchem.Mol object at 0x7f5838f2cac0>, <rdkit.Chem.rdchem.Mol object at 0x7f5838f2d310>, <rdkit.Chem.rdchem.Mol object at 0x7f5838f2de00>, <rdkit.Chem.rdchem.Mol object at 0x7f5838f2d850>, <rdkit.Chem.rdchem.Mol object at 0x7f5838f2c200>]","[0, 0, 0, 0, 0, 893, 894, 895, 896, 897, 898, 1, 899, 900, 901, 902, 903]"
J74,m-ITIC,-5.56,-3.06,-5.526666666666667,-3.8515384615384622,0.667,CF,_,150.0,PEDOT:PSS,PDINO,9.63,9.62,0.99,61.18,"[<rdkit.Chem.rdchem.Mol object at 0x7f5838f2e810>, <rdkit.Chem.rdchem.Mol object at 0x7f5838f2e260>, <rdkit.Chem.rdchem.Mol object at 0x7f5838f2e650>, <rdkit.Chem.rdchem.Mol object at 0x7f5838f2e0a0>, <rdkit.Chem.rdchem.Mol object at 0x7f5838f2c510>, <rdkit.Chem.rdchem.Mol object at 0x7f5838f2eb20>]","[<rdkit.Chem.rdchem.Mol object at 0x7f5838f2e3b0>, <rdkit.Chem.rdchem.Mol object at 0x7f5838f2de70>, <rdkit.Chem.rdchem.Mol object at 0x7f5838f2dbd0>, <rdkit.Chem.rdchem.Mol object at 0x7f5838f2e340>, <rdkit.Chem.rdchem.Mol object at 0x7f5838f2e5e0>]","[<rdkit.Chem.rdchem.Mol object at 0x7f5838f2e810>, <rdkit.Chem.rdchem.Mol object at 0x7f5838f2e260>, <rdkit.Chem.rdchem.Mol object at 0x7f5838f2e650>, <rdkit.Chem.rdchem.Mol object at 0x7f5838f2e0a0>, <rdkit.Chem.rdchem.Mol object at 0x7f5838f2c510>, <rdkit.Chem.rdchem.Mol object at 0x7f5838f2eb20>, '.', <rdkit.Chem.rdchem.Mol object at 0x7f5838f2e3b0>, <rdkit.Chem.rdchem.Mol object at 0x7f5838f2de70>, <rdkit.Chem.rdchem.Mol object at 0x7f5838f2dbd0>, <rdkit.Chem.rdchem.Mol object at 0x7f5838f2e340>, <rdkit.Chem.rdchem.Mol object at 0x7f5838f2e5e0>]","[0, 0, 0, 0, 0, 904, 905, 906, 907, 908, 909, 1, 910, 911, 912, 913, 914]"
J91,m-ITIC,-5.5,-3.02,-5.526666666666667,-3.8515384615384622,0.667,CF,_,150.0,PEDOT:PSS,PDINO,11.63,11.63,0.984,65.54,"[<rdkit.Chem.rdchem.Mol object at 0x7f5838f2ece0>, <rdkit.Chem.rdchem.Mol object at 0x7f5838f2edc0>, <rdkit.Chem.rdchem.Mol object at 0x7f5838f2eab0>, <rdkit.Chem.rdchem.Mol object at 0x7f5838f2e7a0>, <rdkit.Chem.rdchem.Mol object at 0x7f5838f2cf20>, <rdkit.Chem.rdchem.Mol object at 0x7f5838f2e180>, <rdkit.Chem.rdchem.Mol object at 0x7f5838f2f220>]","[<rdkit.Chem.rdchem.Mol object at 0x7f5838f2f290>, <rdkit.Chem.rdchem.Mol object at 0x7f5838f2e500>, <rdkit.Chem.rdchem.Mol object at 0x7f5838f2e490>, <rdkit.Chem.rdchem.Mol object at 0x7f5838f2ca50>, <rdkit.Chem.rdchem.Mol object at 0x7f5838f2e030>]","[<rdkit.Chem.rdchem.Mol object at 0x7f5838f2ece0>, <rdkit.Chem.rdchem.Mol object at 0x7f5838f2edc0>, <rdkit.Chem.rdchem.Mol object at 0x7f5838f2eab0>, <rdkit.Chem.rdchem.Mol object at 0x7f5838f2e7a0>, <rdkit.Chem.rdchem.Mol object at 0x7f5838f2cf20>, <rdkit.Chem.rdchem.Mol object at 0x7f5838f2e180>, <rdkit.Chem.rdchem.Mol object at 0x7f5838f2f220>, '.', <rdkit.Chem.rdchem.Mol object at 0x7f5838f2f290>, <rdkit.Chem.rdchem.Mol object at 0x7f5838f2e500>, <rdkit.Chem.rdchem.Mol object at 0x7f5838f2e490>, <rdkit.Chem.rdchem.Mol object at 0x7f5838f2ca50>, <rdkit.Chem.rdchem.Mol object at 0x7f5838f2e030>]","[0, 0, 0, 0, 915, 916, 917, 918, 919, 920, 921, 1, 922, 923, 924, 925, 926]"
J52,m-ITIC,-5.218571428571429,-3.341428571428572,-5.526666666666667,-3.8515384615384622,0.667,CF,_,150.0,PEDOT:PSS,PDINO,5.98,5.98,0.701,49.73,"[<rdkit.Chem.rdchem.Mol object at 0x7f5838f2f140>, <rdkit.Chem.rdchem.Mol object at 0x7f5838f2ed50>, <rdkit.Chem.rdchem.Mol object at 0x7f5838f2f3e0>, <rdkit.Chem.rdchem.Mol object at 0x7f5838f2da10>, <rdkit.Chem.rdchem.Mol object at 0x7f5838f2f060>, <rdkit.Chem.rdchem.Mol object at 0x7f5838f2f8b0>]","[<rdkit.Chem.rdchem.Mol object at 0x7f5838f2f680>, <rdkit.Chem.rdchem.Mol object at 0x7f5838f2eb90>, <rdkit.Chem.rdchem.Mol object at 0x7f5838f2ef80>, <rdkit.Chem.rdchem.Mol object at 0x7f5838f2f300>, <rdkit.Chem.rdchem.Mol object at 0x7f5838f2dfc0>]","[<rdkit.Chem.rdchem.Mol object at 0x7f5838f2f140>, <rdkit.Chem.rdchem.Mol object at 0x7f5838f2ed50>, <rdkit.Chem.rdchem.Mol object at 0x7f5838f2f3e0>, <rdkit.Chem.rdchem.Mol object at 0x7f5838f2da10>, <rdkit.Chem.rdchem.Mol object at 0x7f5838f2f060>, <rdkit.Chem.rdchem.Mol object at 0x7f5838f2f8b0>, '.', <rdkit.Chem.rdchem.Mol object at 0x7f5838f2f680>, <rdkit.Chem.rdchem.Mol object at 0x7f5838f2eb90>, <rdkit.Chem.rdchem.Mol object at 0x7f5838f2ef80>, <rdkit.Chem.rdchem.Mol object at 0x7f5838f2f300>, <rdkit.Chem.rdchem.Mol object at 0x7f5838f2dfc0>]","[0, 0, 0, 0, 0, 927, 928, 929, 930, 931, 932, 1, 933, 934, 935, 936, 937]"
J71,m-MeIC,-5.353333333333333,-3.4318181818181825,-5.54,-3.9,1.0,CF,_,150.0,PEDOT:PSS,PDINO,11.73,11.73,0.919,69.2,"[<rdkit.Chem.rdchem.Mol object at 0x7f5838f2dee0>, <rdkit.Chem.rdchem.Mol object at 0x7f5838f2f450>, <rdkit.Chem.rdchem.Mol object at 0x7f5838f2ea40>, <rdkit.Chem.rdchem.Mol object at 0x7f5838f2ee30>, <rdkit.Chem.rdchem.Mol object at 0x7f5838f2f1b0>, <rdkit.Chem.rdchem.Mol object at 0x7f5838f2f990>]","[<rdkit.Chem.rdchem.Mol object at 0x7f5838f2d5b0>, <rdkit.Chem.rdchem.Mol object at 0x7f5838f2f5a0>, <rdkit.Chem.rdchem.Mol object at 0x7f5838f2f610>, <rdkit.Chem.rdchem.Mol object at 0x7f5838f2d8c0>, <rdkit.Chem.rdchem.Mol object at 0x7f5838f2eea0>]","[<rdkit.Chem.rdchem.Mol object at 0x7f5838f2dee0>, <rdkit.Chem.rdchem.Mol object at 0x7f5838f2f450>, <rdkit.Chem.rdchem.Mol object at 0x7f5838f2ea40>, <rdkit.Chem.rdchem.Mol object at 0x7f5838f2ee30>, <rdkit.Chem.rdchem.Mol object at 0x7f5838f2f1b0>, <rdkit.Chem.rdchem.Mol object at 0x7f5838f2f990>, '.', <rdkit.Chem.rdchem.Mol object at 0x7f5838f2d5b0>, <rdkit.Chem.rdchem.Mol object at 0x7f5838f2f5a0>, <rdkit.Chem.rdchem.Mol object at 0x7f5838f2f610>, <rdkit.Chem.rdchem.Mol object at 0x7f5838f2d8c0>, <rdkit.Chem.rdchem.Mol object at 0x7f5838f2eea0>]","[0, 0, 0, 0, 0, 938, 939, 940, 941, 942, 943, 1, 944, 945, 946, 947, 948]"
J61,TP21,-5.303333333333334,-3.151666666666667,-5.46,-3.61,1.0,CB,_,140.0,PEDOT:PSS,Ca,5.81,5.85,1.05,51.0,"[<rdkit.Chem.rdchem.Mol object at 0x7f5838f2e420>, <rdkit.Chem.rdchem.Mol object at 0x7f5838f2e730>, <rdkit.Chem.rdchem.Mol object at 0x7f5838f2ef10>, <rdkit.Chem.rdchem.Mol object at 0x7f5838f38900>, <rdkit.Chem.rdchem.Mol object at 0x7f5838f38580>, <rdkit.Chem.rdchem.Mol object at 0x7f5838f38510>, <rdkit.Chem.rdchem.Mol object at 0x7f5838f38d60>]","[<rdkit.Chem.rdchem.Mol object at 0x7f5838f2eff0>, <rdkit.Chem.rdchem.Mol object at 0x7f5838f2e6c0>, <rdkit.Chem.rdchem.Mol object at 0x7f5838f2f6f0>, <rdkit.Chem.rdchem.Mol object at 0x7f5838f38f20>, <rdkit.Chem.rdchem.Mol object at 0x7f5838f38660>, <rdkit.Chem.rdchem.Mol object at 0x7f5838f38c10>]","[<rdkit.Chem.rdchem.Mol object at 0x7f5838f2e420>, <rdkit.Chem.rdchem.Mol object at 0x7f5838f2e730>, <rdkit.Chem.rdchem.Mol object at 0x7f5838f2ef10>, <rdkit.Chem.rdchem.Mol object at 0x7f5838f38900>, <rdkit.Chem.rdchem.Mol object at 0x7f5838f38580>, <rdkit.Chem.rdchem.Mol object at 0x7f5838f38510>, <rdkit.Chem.rdchem.Mol object at 0x7f5838f38d60>, '.', <rdkit.Chem.rdchem.Mol object at 0x7f5838f2eff0>, <rdkit.Chem.rdchem.Mol object at 0x7f5838f2e6c0>, <rdkit.Chem.rdchem.Mol object at 0x7f5838f2f6f0>, <rdkit.Chem.rdchem.Mol object at 0x7f5838f38f20>, <rdkit.Chem.rdchem.Mol object at 0x7f5838f38660>, <rdkit.Chem.rdchem.Mol object at 0x7f5838f38c10>]","[0, 0, 0, 971, 972, 973, 974, 975, 976, 977, 1, 978, 979, 980, 981, 982, 983]"
FTAZ,IOIC2,-5.43,-3.3200000000000003,-5.41,-3.78,0.667,CF,DIO,25.0,MoOx,ZnO,12.3,12.29,0.9,69.3,"[<rdkit.Chem.rdchem.Mol object at 0x7f5838f2fa00>, <rdkit.Chem.rdchem.Mol object at 0x7f5838f39000>, <rdkit.Chem.rdchem.Mol object at 0x7f5838f2fae0>, <rdkit.Chem.rdchem.Mol object at 0x7f5838f38970>, <rdkit.Chem.rdchem.Mol object at 0x7f5838f38740>, <rdkit.Chem.rdchem.Mol object at 0x7f5838f383c0>]","[<rdkit.Chem.rdchem.Mol object at 0x7f5838f38040>, <rdkit.Chem.rdchem.Mol object at 0x7f5838f39070>, <rdkit.Chem.rdchem.Mol object at 0x7f5838f389e0>, <rdkit.Chem.rdchem.Mol object at 0x7f5838f38f90>, <rdkit.Chem.rdchem.Mol object at 0x7f5838f3a880>]","[<rdkit.Chem.rdchem.Mol object at 0x7f5838f2fa00>, <rdkit.Chem.rdchem.Mol object at 0x7f5838f39000>, <rdkit.Chem.rdchem.Mol object at 0x7f5838f2fae0>, <rdkit.Chem.rdchem.Mol object at 0x7f5838f38970>, <rdkit.Chem.rdchem.Mol object at 0x7f5838f38740>, <rdkit.Chem.rdchem.Mol object at 0x7f5838f383c0>, '.', <rdkit.Chem.rdchem.Mol object at 0x7f5838f38040>, <rdkit.Chem.rdchem.Mol object at 0x7f5838f39070>, <rdkit.Chem.rdchem.Mol object at 0x7f5838f389e0>, <rdkit.Chem.rdchem.Mol object at 0x7f5838f38f90>, <rdkit.Chem.rdchem.Mol object at 0x7f5838f3a880>]","[0, 0, 0, 0, 0, 995, 996, 997, 998, 999, 1000, 1, 1001, 1002, 1003, 1004, 1005]"