Donor,Acceptor,HOMO_D_eV,LUMO_D_eV,HOMO_A_eV,LUMO_A_eV,D_A_ratio_m_m,solvent,solvent_additive,annealing_temperature,hole_contact_layer,electron_contact_layer,PCE_percent,calc_PCE_percent,Voc_V,FF_percent,Donor_BRICS,Acceptor_BRICS,DA_pair_BRICS,DA_tokenized_BRICS
PBDT-2TC,ITIC,-5.43,-3.57,-5.574146341463415,-3.915,1.0,CB,_,120.0,PEDOT:PSS,C60-bissalt,9.35,9.35,0.93,65.7,"[<rdkit.Chem.rdchem.Mol object at 0x7f5838e9fdf0>, <rdkit.Chem.rdchem.Mol object at 0x7f5838e9fed0>, <rdkit.Chem.rdchem.Mol object at 0x7f5838e9f990>, <rdkit.Chem.rdchem.Mol object at 0x7f5838e9ff40>, <rdkit.Chem.rdchem.Mol object at 0x7f5838e7c5f0>, <rdkit.Chem.rdchem.Mol object at 0x7f5838e7c890>, <rdkit.Chem.rdchem.Mol object at 0x7f5838e7c200>, <rdkit.Chem.rdchem.Mol object at 0x7f5838e7cd60>]","[<rdkit.Chem.rdchem.Mol object at 0x7f5838e7cb30>, <rdkit.Chem.rdchem.Mol object at 0x7f5838e7c580>, <rdkit.Chem.rdchem.Mol object at 0x7f5838e9f530>, <rdkit.Chem.rdchem.Mol object at 0x7f5838e7c350>, <rdkit.Chem.rdchem.Mol object at 0x7f5838e7cdd0>]","[<rdkit.Chem.rdchem.Mol object at 0x7f5838e9fdf0>, <rdkit.Chem.rdchem.Mol object at 0x7f5838e9fed0>, <rdkit.Chem.rdchem.Mol object at 0x7f5838e9f990>, <rdkit.Chem.rdchem.Mol object at 0x7f5838e9ff40>, <rdkit.Chem.rdchem.Mol object at 0x7f5838e7c5f0>, <rdkit.Chem.rdchem.Mol object at 0x7f5838e7c890>, <rdkit.Chem.rdchem.Mol object at 0x7f5838e7c200>, <rdkit.Chem.rdchem.Mol object at 0x7f5838e7cd60>, '.', <rdkit.Chem.rdchem.Mol object at 0x7f5838e7cb30>, <rdkit.Chem.rdchem.Mol object at 0x7f5838e7c580>, <rdkit.Chem.rdchem.Mol object at 0x7f5838e9f530>, <rdkit.Chem.rdchem.Mol object at 0x7f5838e7c350>, <rdkit.Chem.rdchem.Mol object at 0x7f5838e7cdd0>]","[0, 0, 0, 544, 545, 546, 547, 548, 549, 550, 551, 1, 552, 553, 554, 555, 556]"
PBDT-FBT,ITIC,-5.14,-3.35,-5.574146341463415,-3.915,1.0,CB,DIO,25.0,MoOx,ZnO,7.15,7.18,0.82,63.8,"[<rdkit.Chem.rdchem.Mol object at 0x7f5838e9f760>, <rdkit.Chem.rdchem.Mol object at 0x7f5838e7d000>, <rdkit.Chem.rdchem.Mol object at 0x7f5838e7d2a0>, <rdkit.Chem.rdchem.Mol object at 0x7f5838e7da80>, <rdkit.Chem.rdchem.Mol object at 0x7f5838e7e110>, <rdkit.Chem.rdchem.Mol object at 0x7f5838e7daf0>, <rdkit.Chem.rdchem.Mol object at 0x7f5838e7d8c0>, <rdkit.Chem.rdchem.Mol object at 0x7f5838e7e2d0>]","[<rdkit.Chem.rdchem.Mol object at 0x7f5838e7d380>, <rdkit.Chem.rdchem.Mol object at 0x7f5838e7c040>, <rdkit.Chem.rdchem.Mol object at 0x7f5838e7d770>, <rdkit.Chem.rdchem.Mol object at 0x7f5838e7cf20>, <rdkit.Chem.rdchem.Mol object at 0x7f5838e7d7e0>]","[<rdkit.Chem.rdchem.Mol object at 0x7f5838e9f760>, <rdkit.Chem.rdchem.Mol object at 0x7f5838e7d000>, <rdkit.Chem.rdchem.Mol object at 0x7f5838e7d2a0>, <rdkit.Chem.rdchem.Mol object at 0x7f5838e7da80>, <rdkit.Chem.rdchem.Mol object at 0x7f5838e7e110>, <rdkit.Chem.rdchem.Mol object at 0x7f5838e7daf0>, <rdkit.Chem.rdchem.Mol object at 0x7f5838e7d8c0>, <rdkit.Chem.rdchem.Mol object at 0x7f5838e7e2d0>, '.', <rdkit.Chem.rdchem.Mol object at 0x7f5838e7d380>, <rdkit.Chem.rdchem.Mol object at 0x7f5838e7c040>, <rdkit.Chem.rdchem.Mol object at 0x7f5838e7d770>, <rdkit.Chem.rdchem.Mol object at 0x7f5838e7cf20>, <rdkit.Chem.rdchem.Mol object at 0x7f5838e7d7e0>]","[0, 0, 0, 582, 583, 584, 585, 586, 587, 588, 589, 1, 590, 591, 592, 593, 594]"
PBDTF-FBT,ITIC,-5.34,-3.53,-5.574146341463415,-3.915,1.0,CB,DIO,25.0,MoOx,ZnO,9.17,9.18,0.9,66.3,"[<rdkit.Chem.rdchem.Mol object at 0x7f5838e7cba0>, <rdkit.Chem.rdchem.Mol object at 0x7f5838e7d700>, <rdkit.Chem.rdchem.Mol object at 0x7f5838e7df50>, <rdkit.Chem.rdchem.Mol object at 0x7f5838e7e180>, <rdkit.Chem.rdchem.Mol object at 0x7f5838e7d620>, <rdkit.Chem.rdchem.Mol object at 0x7f5838e7c270>, <rdkit.Chem.rdchem.Mol object at 0x7f5838e7ce40>, <rdkit.Chem.rdchem.Mol object at 0x7f5838e7de00>, <rdkit.Chem.rdchem.Mol object at 0x7f5838e7e5e0>]","[<rdkit.Chem.rdchem.Mol object at 0x7f5838e7e0a0>, <rdkit.Chem.rdchem.Mol object at 0x7f5838e7d690>, <rdkit.Chem.rdchem.Mol object at 0x7f5838e7dfc0>, <rdkit.Chem.rdchem.Mol object at 0x7f5838e7c0b0>, <rdkit.Chem.rdchem.Mol object at 0x7f5838e7c120>]","[<rdkit.Chem.rdchem.Mol object at 0x7f5838e7cba0>, <rdkit.Chem.rdchem.Mol object at 0x7f5838e7d700>, <rdkit.Chem.rdchem.Mol object at 0x7f5838e7df50>, <rdkit.Chem.rdchem.Mol object at 0x7f5838e7e180>, <rdkit.Chem.rdchem.Mol object at 0x7f5838e7d620>, <rdkit.Chem.rdchem.Mol object at 0x7f5838e7c270>, <rdkit.Chem.rdchem.Mol object at 0x7f5838e7ce40>, <rdkit.Chem.rdchem.Mol object at 0x7f5838e7de00>, <rdkit.Chem.rdchem.Mol object at 0x7f5838e7e5e0>, '.', <rdkit.Chem.rdchem.Mol object at 0x7f5838e7e0a0>, <rdkit.Chem.rdchem.Mol object at 0x7f5838e7d690>, <rdkit.Chem.rdchem.Mol object at 0x7f5838e7dfc0>, <rdkit.Chem.rdchem.Mol object at 0x7f5838e7c0b0>, <rdkit.Chem.rdchem.Mol object at 0x7f5838e7c120>]","[0, 0, 595, 596, 597, 598, 599, 600, 601, 602, 603, 1, 604, 605, 606, 607, 608]"
PBDTS-FBT,ITIC,-5.2,-3.4,-5.574146341463415,-3.915,1.0,CB,DIO,25.0,MoOx,ZnO,8.58,8.58,0.89,65.9,"[<rdkit.Chem.rdchem.Mol object at 0x7f5838e7dee0>, <rdkit.Chem.rdchem.Mol object at 0x7f5838e7e490>, <rdkit.Chem.rdchem.Mol object at 0x7f5838e7e6c0>, <rdkit.Chem.rdchem.Mol object at 0x7f5838e7e340>, <rdkit.Chem.rdchem.Mol object at 0x7f5838e7d230>, <rdkit.Chem.rdchem.Mol object at 0x7f5838e7e500>, <rdkit.Chem.rdchem.Mol object at 0x7f5838e7e1f0>, <rdkit.Chem.rdchem.Mol object at 0x7f5838e7ed50>]","[<rdkit.Chem.rdchem.Mol object at 0x7f5838e7e880>, <rdkit.Chem.rdchem.Mol object at 0x7f5838e7d1c0>, <rdkit.Chem.rdchem.Mol object at 0x7f5838e7ca50>, <rdkit.Chem.rdchem.Mol object at 0x7f5838e7dc40>, <rdkit.Chem.rdchem.Mol object at 0x7f5838e7c740>]","[<rdkit.Chem.rdchem.Mol object at 0x7f5838e7dee0>, <rdkit.Chem.rdchem.Mol object at 0x7f5838e7e490>, <rdkit.Chem.rdchem.Mol object at 0x7f5838e7e6c0>, <rdkit.Chem.rdchem.Mol object at 0x7f5838e7e340>, <rdkit.Chem.rdchem.Mol object at 0x7f5838e7d230>, <rdkit.Chem.rdchem.Mol object at 0x7f5838e7e500>, <rdkit.Chem.rdchem.Mol object at 0x7f5838e7e1f0>, <rdkit.Chem.rdchem.Mol object at 0x7f5838e7ed50>, '.', <rdkit.Chem.rdchem.Mol object at 0x7f5838e7e880>, <rdkit.Chem.rdchem.Mol object at 0x7f5838e7d1c0>, <rdkit.Chem.rdchem.Mol object at 0x7f5838e7ca50>, <rdkit.Chem.rdchem.Mol object at 0x7f5838e7dc40>, <rdkit.Chem.rdchem.Mol object at 0x7f5838e7c740>]","[0, 0, 0, 609, 610, 611, 612, 613, 614, 615, 616, 1, 617, 618, 619, 620, 621]"
PBDTS-NQx,ITIC,-5.31,-3.46,-5.574146341463415,-3.915,1.25,CB,DIO,25.0,MoOx,ZnO,11.47,11.47,0.92,69.8,"[<rdkit.Chem.rdchem.Mol object at 0x7f5838e778b0>, <rdkit.Chem.rdchem.Mol object at 0x7f5838e77060>, <rdkit.Chem.rdchem.Mol object at 0x7f5838e77e60>, <rdkit.Chem.rdchem.Mol object at 0x7f5838e77530>, <rdkit.Chem.rdchem.Mol object at 0x7f5838e76e30>, <rdkit.Chem.rdchem.Mol object at 0x7f5838e75380>, <rdkit.Chem.rdchem.Mol object at 0x7f5838f2c580>]","[<rdkit.Chem.rdchem.Mol object at 0x7f5838e7f140>, <rdkit.Chem.rdchem.Mol object at 0x7f5838e7eea0>, <rdkit.Chem.rdchem.Mol object at 0x7f5838e7eff0>, <rdkit.Chem.rdchem.Mol object at 0x7f5838e7dbd0>, <rdkit.Chem.rdchem.Mol object at 0x7f5838e7e3b0>]","[<rdkit.Chem.rdchem.Mol object at 0x7f5838e778b0>, <rdkit.Chem.rdchem.Mol object at 0x7f5838e77060>, <rdkit.Chem.rdchem.Mol object at 0x7f5838e77e60>, <rdkit.Chem.rdchem.Mol object at 0x7f5838e77530>, <rdkit.Chem.rdchem.Mol object at 0x7f5838e76e30>, <rdkit.Chem.rdchem.Mol object at 0x7f5838e75380>, <rdkit.Chem.rdchem.Mol object at 0x7f5838f2c580>, '.', <rdkit.Chem.rdchem.Mol object at 0x7f5838e7f140>, <rdkit.Chem.rdchem.Mol object at 0x7f5838e7eea0>, <rdkit.Chem.rdchem.Mol object at 0x7f5838e7eff0>, <rdkit.Chem.rdchem.Mol object at 0x7f5838e7dbd0>, <rdkit.Chem.rdchem.Mol object at 0x7f5838e7e3b0>]","[0, 0, 0, 0, 647, 648, 649, 650, 651, 652, 653, 1, 654, 655, 656, 657, 658]"
PBDTS-TDZ,ITIC,-5.39,-2.8,-5.574146341463415,-3.915,1.0,o-xylene,_,25.0,PEDOT:PSS,MoOx,12.8,12.79,1.1,65.4,"[<rdkit.Chem.rdchem.Mol object at 0x7f5838e7fa00>, <rdkit.Chem.rdchem.Mol object at 0x7f5838e7f6f0>, <rdkit.Chem.rdchem.Mol object at 0x7f5838e7f4c0>, <rdkit.Chem.rdchem.Mol object at 0x7f5838e7e960>, <rdkit.Chem.rdchem.Mol object at 0x7f5838e7ec70>, <rdkit.Chem.rdchem.Mol object at 0x7f5838e7f5a0>, <rdkit.Chem.rdchem.Mol object at 0x7f5838e7ef80>, <rdkit.Chem.rdchem.Mol object at 0x7f5838e7fae0>]","[<rdkit.Chem.rdchem.Mol object at 0x7f5838e7ec00>, <rdkit.Chem.rdchem.Mol object at 0x7f5838e7d0e0>, <rdkit.Chem.rdchem.Mol object at 0x7f5838e7e7a0>, <rdkit.Chem.rdchem.Mol object at 0x7f5838e7d150>, <rdkit.Chem.rdchem.Mol object at 0x7f5838e7cc80>]","[<rdkit.Chem.rdchem.Mol object at 0x7f5838e7fa00>, <rdkit.Chem.rdchem.Mol object at 0x7f5838e7f6f0>, <rdkit.Chem.rdchem.Mol object at 0x7f5838e7f4c0>, <rdkit.Chem.rdchem.Mol object at 0x7f5838e7e960>, <rdkit.Chem.rdchem.Mol object at 0x7f5838e7ec70>, <rdkit.Chem.rdchem.Mol object at 0x7f5838e7f5a0>, <rdkit.Chem.rdchem.Mol object at 0x7f5838e7ef80>, <rdkit.Chem.rdchem.Mol object at 0x7f5838e7fae0>, '.', <rdkit.Chem.rdchem.Mol object at 0x7f5838e7ec00>, <rdkit.Chem.rdchem.Mol object at 0x7f5838e7d0e0>, <rdkit.Chem.rdchem.Mol object at 0x7f5838e7e7a0>, <rdkit.Chem.rdchem.Mol object at 0x7f5838e7d150>, <rdkit.Chem.rdchem.Mol object at 0x7f5838e7cc80>]","[0, 0, 0, 659, 660, 661, 662, 663, 664, 665, 666, 1, 667, 668, 669, 670, 671]"
PBDT-TDZ,ITIC,-5.35,-2.78,-5.574146341463415,-3.915,1.0,o-xylene,_,25.0,PEDOT:PSS,MoOx,9.43,9.43,1.02,58.1,"[<rdkit.Chem.rdchem.Mol object at 0x7f5838e7e420>, <rdkit.Chem.rdchem.Mol object at 0x7f5838e7edc0>, <rdkit.Chem.rdchem.Mol object at 0x7f5838e7fb50>, <rdkit.Chem.rdchem.Mol object at 0x7f5838e7fed0>, <rdkit.Chem.rdchem.Mol object at 0x7f5838e7dd90>, <rdkit.Chem.rdchem.Mol object at 0x7f5838e7e570>, <rdkit.Chem.rdchem.Mol object at 0x7f5838e7ee30>, <rdkit.Chem.rdchem.Mol object at 0x7f5838e7f7d0>]","[<rdkit.Chem.rdchem.Mol object at 0x7f5838e7f300>, <rdkit.Chem.rdchem.Mol object at 0x7f5838e7f8b0>, <rdkit.Chem.rdchem.Mol object at 0x7f5838e7fd10>, <rdkit.Chem.rdchem.Mol object at 0x7f5838e7f920>, <rdkit.Chem.rdchem.Mol object at 0x7f5838e7f530>]","[<rdkit.Chem.rdchem.Mol object at 0x7f5838e7e420>, <rdkit.Chem.rdchem.Mol object at 0x7f5838e7edc0>, <rdkit.Chem.rdchem.Mol object at 0x7f5838e7fb50>, <rdkit.Chem.rdchem.Mol object at 0x7f5838e7fed0>, <rdkit.Chem.rdchem.Mol object at 0x7f5838e7dd90>, <rdkit.Chem.rdchem.Mol object at 0x7f5838e7e570>, <rdkit.Chem.rdchem.Mol object at 0x7f5838e7ee30>, <rdkit.Chem.rdchem.Mol object at 0x7f5838e7f7d0>, '.', <rdkit.Chem.rdchem.Mol object at 0x7f5838e7f300>, <rdkit.Chem.rdchem.Mol object at 0x7f5838e7f8b0>, <rdkit.Chem.rdchem.Mol object at 0x7f5838e7fd10>, <rdkit.Chem.rdchem.Mol object at 0x7f5838e7f920>, <rdkit.Chem.rdchem.Mol object at 0x7f5838e7f530>]","[0, 0, 0, 672, 673, 674, 675, 676, 677, 678, 679, 1, 680, 681, 682, 683, 684]"
PBFZ-OP,ITIC,-5.33,-3.01,-5.574146341463415,-3.915,1.0,CF,_,160.0,ZnO,MoOx,10.5,10.52,0.91,61.8,"[<rdkit.Chem.rdchem.Mol object at 0x7f5838e7fa70>, <rdkit.Chem.rdchem.Mol object at 0x7f5838e7f060>, <rdkit.Chem.rdchem.Mol object at 0x7f5838e7e730>, <rdkit.Chem.rdchem.Mol object at 0x7f5838e746d0>, <rdkit.Chem.rdchem.Mol object at 0x7f5838e7e9d0>, <rdkit.Chem.rdchem.Mol object at 0x7f5838e749e0>, <rdkit.Chem.rdchem.Mol object at 0x7f5838e74e40>, <rdkit.Chem.rdchem.Mol object at 0x7f5838e74350>]","[<rdkit.Chem.rdchem.Mol object at 0x7f5838e7fbc0>, <rdkit.Chem.rdchem.Mol object at 0x7f5838e7fc30>, <rdkit.Chem.rdchem.Mol object at 0x7f5838e7f3e0>, <rdkit.Chem.rdchem.Mol object at 0x7f5838e7f680>, <rdkit.Chem.rdchem.Mol object at 0x7f5838e745f0>]","[<rdkit.Chem.rdchem.Mol object at 0x7f5838e7fa70>, <rdkit.Chem.rdchem.Mol object at 0x7f5838e7f060>, <rdkit.Chem.rdchem.Mol object at 0x7f5838e7e730>, <rdkit.Chem.rdchem.Mol object at 0x7f5838e746d0>, <rdkit.Chem.rdchem.Mol object at 0x7f5838e7e9d0>, <rdkit.Chem.rdchem.Mol object at 0x7f5838e749e0>, <rdkit.Chem.rdchem.Mol object at 0x7f5838e74e40>, <rdkit.Chem.rdchem.Mol object at 0x7f5838e74350>, '.', <rdkit.Chem.rdchem.Mol object at 0x7f5838e7fbc0>, <rdkit.Chem.rdchem.Mol object at 0x7f5838e7fc30>, <rdkit.Chem.rdchem.Mol object at 0x7f5838e7f3e0>, <rdkit.Chem.rdchem.Mol object at 0x7f5838e7f680>, <rdkit.Chem.rdchem.Mol object at 0x7f5838e745f0>]","[0, 0, 0, 685, 686, 687, 688, 689, 690, 691, 692, 1, 693, 694, 695, 696, 697]"
PSBZ,ITIC,-5.37,-3.47,-5.574146341463415,-3.915,1.0,CB,_,140.0,ZnO,MoOx,10.5,10.48,0.89,62.0,"[<rdkit.Chem.rdchem.Mol object at 0x7f5838e7fe60>, <rdkit.Chem.rdchem.Mol object at 0x7f5838e7fca0>, <rdkit.Chem.rdchem.Mol object at 0x7f5838e7eb20>, <rdkit.Chem.rdchem.Mol object at 0x7f5838e74900>, <rdkit.Chem.rdchem.Mol object at 0x7f5838e74c80>, <rdkit.Chem.rdchem.Mol object at 0x7f5838e75150>, <rdkit.Chem.rdchem.Mol object at 0x7f5838e74820>]","[<rdkit.Chem.rdchem.Mol object at 0x7f5838e7f0d0>, <rdkit.Chem.rdchem.Mol object at 0x7f5838e754d0>, <rdkit.Chem.rdchem.Mol object at 0x7f5838e7fd80>, <rdkit.Chem.rdchem.Mol object at 0x7f5838e7f840>, <rdkit.Chem.rdchem.Mol object at 0x7f5838e74d60>]","[<rdkit.Chem.rdchem.Mol object at 0x7f5838e7fe60>, <rdkit.Chem.rdchem.Mol object at 0x7f5838e7fca0>, <rdkit.Chem.rdchem.Mol object at 0x7f5838e7eb20>, <rdkit.Chem.rdchem.Mol object at 0x7f5838e74900>, <rdkit.Chem.rdchem.Mol object at 0x7f5838e74c80>, <rdkit.Chem.rdchem.Mol object at 0x7f5838e75150>, <rdkit.Chem.rdchem.Mol object at 0x7f5838e74820>, '.', <rdkit.Chem.rdchem.Mol object at 0x7f5838e7f0d0>, <rdkit.Chem.rdchem.Mol object at 0x7f5838e754d0>, <rdkit.Chem.rdchem.Mol object at 0x7f5838e7fd80>, <rdkit.Chem.rdchem.Mol object at 0x7f5838e7f840>, <rdkit.Chem.rdchem.Mol object at 0x7f5838e74d60>]","[0, 0, 0, 0, 698, 699, 700, 701, 702, 703, 704, 1, 705, 706, 707, 708, 709]"
J71,ITIC1,-5.353333333333333,-3.4318181818181825,-5.48,-3.85,1.0,CF,_,100.0,PEDOT:PSS,ZrAcAc,8.47,8.41,0.92,61.2,"[<rdkit.Chem.rdchem.Mol object at 0x7f5838e7f990>, <rdkit.Chem.rdchem.Mol object at 0x7f5838e7eb90>, <rdkit.Chem.rdchem.Mol object at 0x7f5838e74660>, <rdkit.Chem.rdchem.Mol object at 0x7f5838e7f760>, <rdkit.Chem.rdchem.Mol object at 0x7f5838e74040>, <rdkit.Chem.rdchem.Mol object at 0x7f5838e742e0>]","[<rdkit.Chem.rdchem.Mol object at 0x7f5838e7ff40>, <rdkit.Chem.rdchem.Mol object at 0x7f5838e740b0>, <rdkit.Chem.rdchem.Mol object at 0x7f5838e7fdf0>, <rdkit.Chem.rdchem.Mol object at 0x7f5838e74cf0>, <rdkit.Chem.rdchem.Mol object at 0x7f5838e750e0>]","[<rdkit.Chem.rdchem.Mol object at 0x7f5838e7f990>, <rdkit.Chem.rdchem.Mol object at 0x7f5838e7eb90>, <rdkit.Chem.rdchem.Mol object at 0x7f5838e74660>, <rdkit.Chem.rdchem.Mol object at 0x7f5838e7f760>, <rdkit.Chem.rdchem.Mol object at 0x7f5838e74040>, <rdkit.Chem.rdchem.Mol object at 0x7f5838e742e0>, '.', <rdkit.Chem.rdchem.Mol object at 0x7f5838e7ff40>, <rdkit.Chem.rdchem.Mol object at 0x7f5838e740b0>, <rdkit.Chem.rdchem.Mol object at 0x7f5838e7fdf0>, <rdkit.Chem.rdchem.Mol object at 0x7f5838e74cf0>, <rdkit.Chem.rdchem.Mol object at 0x7f5838e750e0>]","[0, 0, 0, 0, 0, 710, 711, 712, 713, 714, 715, 1, 716, 717, 718, 719, 720]"
PBDT-ODZ,ITIC-Th,-5.68,-2.89,-5.673333333333334,-3.908888888888889,1.0,CB,_,25.0,CuSCN,PFN-Br,10.12,10.12,1.08,60.4,"[<rdkit.Chem.rdchem.Mol object at 0x7f5838e7eab0>, <rdkit.Chem.rdchem.Mol object at 0x7f5838e753f0>, <rdkit.Chem.rdchem.Mol object at 0x7f5838e7f450>, <rdkit.Chem.rdchem.Mol object at 0x7f5838e74120>, <rdkit.Chem.rdchem.Mol object at 0x7f5838e75540>, <rdkit.Chem.rdchem.Mol object at 0x7f5838e74a50>, <rdkit.Chem.rdchem.Mol object at 0x7f5838e75e70>]","[<rdkit.Chem.rdchem.Mol object at 0x7f5838e75930>, <rdkit.Chem.rdchem.Mol object at 0x7f5838e74b30>, <rdkit.Chem.rdchem.Mol object at 0x7f5838e76ea0>, <rdkit.Chem.rdchem.Mol object at 0x7f5838e75460>, <rdkit.Chem.rdchem.Mol object at 0x7f5838e74970>]","[<rdkit.Chem.rdchem.Mol object at 0x7f5838e7eab0>, <rdkit.Chem.rdchem.Mol object at 0x7f5838e753f0>, <rdkit.Chem.rdchem.Mol object at 0x7f5838e7f450>, <rdkit.Chem.rdchem.Mol object at 0x7f5838e74120>, <rdkit.Chem.rdchem.Mol object at 0x7f5838e75540>, <rdkit.Chem.rdchem.Mol object at 0x7f5838e74a50>, <rdkit.Chem.rdchem.Mol object at 0x7f5838e75e70>, '.', <rdkit.Chem.rdchem.Mol object at 0x7f5838e75930>, <rdkit.Chem.rdchem.Mol object at 0x7f5838e74b30>, <rdkit.Chem.rdchem.Mol object at 0x7f5838e76ea0>, <rdkit.Chem.rdchem.Mol object at 0x7f5838e75460>, <rdkit.Chem.rdchem.Mol object at 0x7f5838e74970>]","[0, 0, 0, 0, 732, 733, 734, 735, 736, 737, 738, 1, 739, 740, 741, 742, 743]"
FTAZ,ITIC-Th2,-5.43,-3.3200000000000003,-5.75,-4.07,0.667,CF,DIO,25.0,MoOx,ZnO,9.06,9.05,0.751,70.07,"[<rdkit.Chem.rdchem.Mol object at 0x7f5838e75620>, <rdkit.Chem.rdchem.Mol object at 0x7f5838e75ee0>, <rdkit.Chem.rdchem.Mol object at 0x7f5838e76570>, <rdkit.Chem.rdchem.Mol object at 0x7f5838e76180>, <rdkit.Chem.rdchem.Mol object at 0x7f5838e74190>, <rdkit.Chem.rdchem.Mol object at 0x7f5838e75bd0>]","[<rdkit.Chem.rdchem.Mol object at 0x7f5838e755b0>, <rdkit.Chem.rdchem.Mol object at 0x7f5838e74dd0>, <rdkit.Chem.rdchem.Mol object at 0x7f5838e76650>, <rdkit.Chem.rdchem.Mol object at 0x7f5838e76a40>, <rdkit.Chem.rdchem.Mol object at 0x7f5838e76730>]","[<rdkit.Chem.rdchem.Mol object at 0x7f5838e75620>, <rdkit.Chem.rdchem.Mol object at 0x7f5838e75ee0>, <rdkit.Chem.rdchem.Mol object at 0x7f5838e76570>, <rdkit.Chem.rdchem.Mol object at 0x7f5838e76180>, <rdkit.Chem.rdchem.Mol object at 0x7f5838e74190>, <rdkit.Chem.rdchem.Mol object at 0x7f5838e75bd0>, '.', <rdkit.Chem.rdchem.Mol object at 0x7f5838e755b0>, <rdkit.Chem.rdchem.Mol object at 0x7f5838e74dd0>, <rdkit.Chem.rdchem.Mol object at 0x7f5838e76650>, <rdkit.Chem.rdchem.Mol object at 0x7f5838e76a40>, <rdkit.Chem.rdchem.Mol object at 0x7f5838e76730>]","[0, 0, 0, 0, 0, 766, 767, 768, 769, 770, 771, 1, 772, 773, 774, 775, 776]"
FTAZ,ITIC-Th3,-5.43,-3.3200000000000003,-5.67,-3.73,0.667,CF,DIO,25.0,MoOx,ZnO,10.7,10.74,0.962,68.33,"[<rdkit.Chem.rdchem.Mol object at 0x7f5838e76b20>, <rdkit.Chem.rdchem.Mol object at 0x7f5838e76420>, <rdkit.Chem.rdchem.Mol object at 0x7f5838e76d50>, <rdkit.Chem.rdchem.Mol object at 0x7f5838e76ce0>, <rdkit.Chem.rdchem.Mol object at 0x7f5838e74eb0>, <rdkit.Chem.rdchem.Mol object at 0x7f5838e76340>]","[<rdkit.Chem.rdchem.Mol object at 0x7f5838e75af0>, <rdkit.Chem.rdchem.Mol object at 0x7f5838e74270>, <rdkit.Chem.rdchem.Mol object at 0x7f5838e75770>, <rdkit.Chem.rdchem.Mol object at 0x7f5838e75000>, <rdkit.Chem.rdchem.Mol object at 0x7f5838e76b90>, <rdkit.Chem.rdchem.Mol object at 0x7f5838e76f10>]","[<rdkit.Chem.rdchem.Mol object at 0x7f5838e76b20>, <rdkit.Chem.rdchem.Mol object at 0x7f5838e76420>, <rdkit.Chem.rdchem.Mol object at 0x7f5838e76d50>, <rdkit.Chem.rdchem.Mol object at 0x7f5838e76ce0>, <rdkit.Chem.rdchem.Mol object at 0x7f5838e74eb0>, <rdkit.Chem.rdchem.Mol object at 0x7f5838e76340>, '.', <rdkit.Chem.rdchem.Mol object at 0x7f5838e75af0>, <rdkit.Chem.rdchem.Mol object at 0x7f5838e74270>, <rdkit.Chem.rdchem.Mol object at 0x7f5838e75770>, <rdkit.Chem.rdchem.Mol object at 0x7f5838e75000>, <rdkit.Chem.rdchem.Mol object at 0x7f5838e76b90>, <rdkit.Chem.rdchem.Mol object at 0x7f5838e76f10>]","[0, 0, 0, 0, 777, 778, 779, 780, 781, 782, 1, 783, 784, 785, 786, 787, 788]"