Donor,Acceptor,HOMO_D_eV,LUMO_D_eV,HOMO_A_eV,LUMO_A_eV,D_A_ratio_m_m,solvent,solvent_additive,annealing_temperature,hole_contact_layer,electron_contact_layer,PCE_percent,calc_PCE_percent,Voc_V,FF_percent,Donor_BRICS,Acceptor_BRICS,DA_pair_BRICS,DA_tokenized_BRICS
PBDB-T,NFTI,-5.297714285714285,-3.4170000000000003,-5.46,-3.77,1.111,o-DCB,DPE,25.0,PEDOT:PSS,FPI,8.34,8.3,0.898,57.0,"[<rdkit.Chem.rdchem.Mol object at 0x7f5838cc6500>, <rdkit.Chem.rdchem.Mol object at 0x7f5838ccc200>, <rdkit.Chem.rdchem.Mol object at 0x7f5838cc7370>, <rdkit.Chem.rdchem.Mol object at 0x7f5838ccc580>, <rdkit.Chem.rdchem.Mol object at 0x7f5838ccd000>]","[<rdkit.Chem.rdchem.Mol object at 0x7f5838cc7060>, <rdkit.Chem.rdchem.Mol object at 0x7f5838cc6c70>, <rdkit.Chem.rdchem.Mol object at 0x7f5838cc60a0>, <rdkit.Chem.rdchem.Mol object at 0x7f5838cc7df0>, <rdkit.Chem.rdchem.Mol object at 0x7f5838cc68f0>, <rdkit.Chem.rdchem.Mol object at 0x7f5838ccd230>]","[<rdkit.Chem.rdchem.Mol object at 0x7f5838cc6500>, <rdkit.Chem.rdchem.Mol object at 0x7f5838ccc200>, <rdkit.Chem.rdchem.Mol object at 0x7f5838cc7370>, <rdkit.Chem.rdchem.Mol object at 0x7f5838ccc580>, <rdkit.Chem.rdchem.Mol object at 0x7f5838ccd000>, '.', <rdkit.Chem.rdchem.Mol object at 0x7f5838cc7060>, <rdkit.Chem.rdchem.Mol object at 0x7f5838cc6c70>, <rdkit.Chem.rdchem.Mol object at 0x7f5838cc60a0>, <rdkit.Chem.rdchem.Mol object at 0x7f5838cc7df0>, <rdkit.Chem.rdchem.Mol object at 0x7f5838cc68f0>, <rdkit.Chem.rdchem.Mol object at 0x7f5838ccd230>]","[0, 0, 0, 0, 0, 5517, 5518, 5519, 5520, 5521, 1, 5522, 5523, 5524, 5525, 5526, 5527]"
FTAZ,F5IC,-5.43,-3.3200000000000003,-5.82,-4.05,0.667,CF,DIO,25.0,MoOx,ZnO/PFN-Br,5.6,5.63,0.704,53.7,"[<rdkit.Chem.rdchem.Mol object at 0x7f5838cc6b90>, <rdkit.Chem.rdchem.Mol object at 0x7f5838cc7290>, <rdkit.Chem.rdchem.Mol object at 0x7f5838cc4a50>, <rdkit.Chem.rdchem.Mol object at 0x7f5838ccc890>, <rdkit.Chem.rdchem.Mol object at 0x7f5838ccceb0>, <rdkit.Chem.rdchem.Mol object at 0x7f5838cccc10>]","[<rdkit.Chem.rdchem.Mol object at 0x7f5838cc6c00>, <rdkit.Chem.rdchem.Mol object at 0x7f5838cccac0>, <rdkit.Chem.rdchem.Mol object at 0x7f5838cc74c0>, <rdkit.Chem.rdchem.Mol object at 0x7f5838cccb30>, <rdkit.Chem.rdchem.Mol object at 0x7f5838cccba0>]","[<rdkit.Chem.rdchem.Mol object at 0x7f5838cc6b90>, <rdkit.Chem.rdchem.Mol object at 0x7f5838cc7290>, <rdkit.Chem.rdchem.Mol object at 0x7f5838cc4a50>, <rdkit.Chem.rdchem.Mol object at 0x7f5838ccc890>, <rdkit.Chem.rdchem.Mol object at 0x7f5838ccceb0>, <rdkit.Chem.rdchem.Mol object at 0x7f5838cccc10>, '.', <rdkit.Chem.rdchem.Mol object at 0x7f5838cc6c00>, <rdkit.Chem.rdchem.Mol object at 0x7f5838cccac0>, <rdkit.Chem.rdchem.Mol object at 0x7f5838cc74c0>, <rdkit.Chem.rdchem.Mol object at 0x7f5838cccb30>, <rdkit.Chem.rdchem.Mol object at 0x7f5838cccba0>]","[0, 0, 0, 0, 0, 5528, 5529, 5530, 5531, 5532, 5533, 1, 5534, 5535, 5536, 5537, 5538]"
FTAZ,F9IC,-5.43,-3.3200000000000003,-5.52,-3.97,0.667,CF,DIO,25.0,MoOx,ZnO/PFN-Br,11.7,11.71,0.873,66.4,"[<rdkit.Chem.rdchem.Mol object at 0x7f5838cc7b50>, <rdkit.Chem.rdchem.Mol object at 0x7f5838ccd1c0>, <rdkit.Chem.rdchem.Mol object at 0x7f5838cc5e70>, <rdkit.Chem.rdchem.Mol object at 0x7f5838ccc040>, <rdkit.Chem.rdchem.Mol object at 0x7f5838cccc80>, <rdkit.Chem.rdchem.Mol object at 0x7f5838ccc970>]","[<rdkit.Chem.rdchem.Mol object at 0x7f5838ccd070>, <rdkit.Chem.rdchem.Mol object at 0x7f5838cccf90>, <rdkit.Chem.rdchem.Mol object at 0x7f5838ccc0b0>, <rdkit.Chem.rdchem.Mol object at 0x7f5838ccd460>, <rdkit.Chem.rdchem.Mol object at 0x7f5838ccd690>]","[<rdkit.Chem.rdchem.Mol object at 0x7f5838cc7b50>, <rdkit.Chem.rdchem.Mol object at 0x7f5838ccd1c0>, <rdkit.Chem.rdchem.Mol object at 0x7f5838cc5e70>, <rdkit.Chem.rdchem.Mol object at 0x7f5838ccc040>, <rdkit.Chem.rdchem.Mol object at 0x7f5838cccc80>, <rdkit.Chem.rdchem.Mol object at 0x7f5838ccc970>, '.', <rdkit.Chem.rdchem.Mol object at 0x7f5838ccd070>, <rdkit.Chem.rdchem.Mol object at 0x7f5838cccf90>, <rdkit.Chem.rdchem.Mol object at 0x7f5838ccc0b0>, <rdkit.Chem.rdchem.Mol object at 0x7f5838ccd460>, <rdkit.Chem.rdchem.Mol object at 0x7f5838ccd690>]","[0, 0, 0, 0, 0, 5550, 5551, 5552, 5553, 5554, 5555, 1, 5556, 5557, 5558, 5559, 5560]"
PBDTTz-SBP,ITIC,-5.46,-3.5,-5.574146341463415,-3.915,1.0,CB,_,25.0,PEDOT:PSS,PFN-Br,12.09,12.09,0.914,71.43,"[<rdkit.Chem.rdchem.Mol object at 0x7f5838cc67a0>, <rdkit.Chem.rdchem.Mol object at 0x7f5838ccda10>, <rdkit.Chem.rdchem.Mol object at 0x7f5838ccd930>, <rdkit.Chem.rdchem.Mol object at 0x7f5838ccd5b0>, <rdkit.Chem.rdchem.Mol object at 0x7f5838ccd700>, <rdkit.Chem.rdchem.Mol object at 0x7f5838ccce40>, <rdkit.Chem.rdchem.Mol object at 0x7f5838ccdb60>, <rdkit.Chem.rdchem.Mol object at 0x7f5838ccdd90>]","[<rdkit.Chem.rdchem.Mol object at 0x7f5838ccc4a0>, <rdkit.Chem.rdchem.Mol object at 0x7f5838ccdcb0>, <rdkit.Chem.rdchem.Mol object at 0x7f5838cce340>, <rdkit.Chem.rdchem.Mol object at 0x7f5838cce5e0>, <rdkit.Chem.rdchem.Mol object at 0x7f5838ccccf0>]","[<rdkit.Chem.rdchem.Mol object at 0x7f5838cc67a0>, <rdkit.Chem.rdchem.Mol object at 0x7f5838ccda10>, <rdkit.Chem.rdchem.Mol object at 0x7f5838ccd930>, <rdkit.Chem.rdchem.Mol object at 0x7f5838ccd5b0>, <rdkit.Chem.rdchem.Mol object at 0x7f5838ccd700>, <rdkit.Chem.rdchem.Mol object at 0x7f5838ccce40>, <rdkit.Chem.rdchem.Mol object at 0x7f5838ccdb60>, <rdkit.Chem.rdchem.Mol object at 0x7f5838ccdd90>, '.', <rdkit.Chem.rdchem.Mol object at 0x7f5838ccc4a0>, <rdkit.Chem.rdchem.Mol object at 0x7f5838ccdcb0>, <rdkit.Chem.rdchem.Mol object at 0x7f5838cce340>, <rdkit.Chem.rdchem.Mol object at 0x7f5838cce5e0>, <rdkit.Chem.rdchem.Mol object at 0x7f5838ccccf0>]","[0, 0, 0, 5561, 5562, 5563, 5564, 5565, 5566, 5567, 5568, 1, 5569, 5570, 5571, 5572, 5573]"
PBDTTz-BP,ITIC,-5.025,-2.97,-5.574146341463415,-3.915,1.0,CB,_,25.0,PEDOT:PSS,PFN-Br,9.2,9.2,0.832,61.56,"[<rdkit.Chem.rdchem.Mol object at 0x7f5838ccd4d0>, <rdkit.Chem.rdchem.Mol object at 0x7f5838ccc510>, <rdkit.Chem.rdchem.Mol object at 0x7f5838ccd2a0>, <rdkit.Chem.rdchem.Mol object at 0x7f5838ccdaf0>, <rdkit.Chem.rdchem.Mol object at 0x7f5838cce8f0>, <rdkit.Chem.rdchem.Mol object at 0x7f5838cce500>, <rdkit.Chem.rdchem.Mol object at 0x7f5838cce730>, <rdkit.Chem.rdchem.Mol object at 0x7f5838ccdf50>]","[<rdkit.Chem.rdchem.Mol object at 0x7f5838cce260>, <rdkit.Chem.rdchem.Mol object at 0x7f5838ccd310>, <rdkit.Chem.rdchem.Mol object at 0x7f5838cceab0>, <rdkit.Chem.rdchem.Mol object at 0x7f5838cced50>, <rdkit.Chem.rdchem.Mol object at 0x7f5838ccd620>]","[<rdkit.Chem.rdchem.Mol object at 0x7f5838ccd4d0>, <rdkit.Chem.rdchem.Mol object at 0x7f5838ccc510>, <rdkit.Chem.rdchem.Mol object at 0x7f5838ccd2a0>, <rdkit.Chem.rdchem.Mol object at 0x7f5838ccdaf0>, <rdkit.Chem.rdchem.Mol object at 0x7f5838cce8f0>, <rdkit.Chem.rdchem.Mol object at 0x7f5838cce500>, <rdkit.Chem.rdchem.Mol object at 0x7f5838cce730>, <rdkit.Chem.rdchem.Mol object at 0x7f5838ccdf50>, '.', <rdkit.Chem.rdchem.Mol object at 0x7f5838cce260>, <rdkit.Chem.rdchem.Mol object at 0x7f5838ccd310>, <rdkit.Chem.rdchem.Mol object at 0x7f5838cceab0>, <rdkit.Chem.rdchem.Mol object at 0x7f5838cced50>, <rdkit.Chem.rdchem.Mol object at 0x7f5838ccd620>]","[0, 0, 0, 5574, 5575, 5576, 5577, 5578, 5579, 5580, 5581, 1, 5582, 5583, 5584, 5585, 5586]"
PJ1,m-ITIC,-5.38,-3.38,-5.526666666666667,-3.8515384615384622,0.667,CF,DIO,130.0,PEDOT:PSS,PDINO,6.41,6.41,1.031,56.0,"[<rdkit.Chem.rdchem.Mol object at 0x7f5838cc6420>, <rdkit.Chem.rdchem.Mol object at 0x7f5838cce2d0>, <rdkit.Chem.rdchem.Mol object at 0x7f5838cce030>, <rdkit.Chem.rdchem.Mol object at 0x7f5838ccde00>, <rdkit.Chem.rdchem.Mol object at 0x7f5838ccec00>, <rdkit.Chem.rdchem.Mol object at 0x7f5838cceff0>, <rdkit.Chem.rdchem.Mol object at 0x7f5838ccdfc0>, <rdkit.Chem.rdchem.Mol object at 0x7f5838ccec70>]","[<rdkit.Chem.rdchem.Mol object at 0x7f5838ccd9a0>, <rdkit.Chem.rdchem.Mol object at 0x7f5838ccece0>, <rdkit.Chem.rdchem.Mol object at 0x7f5838ccea40>, <rdkit.Chem.rdchem.Mol object at 0x7f5838ccde70>, <rdkit.Chem.rdchem.Mol object at 0x7f5838cce0a0>]","[<rdkit.Chem.rdchem.Mol object at 0x7f5838cc6420>, <rdkit.Chem.rdchem.Mol object at 0x7f5838cce2d0>, <rdkit.Chem.rdchem.Mol object at 0x7f5838cce030>, <rdkit.Chem.rdchem.Mol object at 0x7f5838ccde00>, <rdkit.Chem.rdchem.Mol object at 0x7f5838ccec00>, <rdkit.Chem.rdchem.Mol object at 0x7f5838cceff0>, <rdkit.Chem.rdchem.Mol object at 0x7f5838ccdfc0>, <rdkit.Chem.rdchem.Mol object at 0x7f5838ccec70>, '.', <rdkit.Chem.rdchem.Mol object at 0x7f5838ccd9a0>, <rdkit.Chem.rdchem.Mol object at 0x7f5838ccece0>, <rdkit.Chem.rdchem.Mol object at 0x7f5838ccea40>, <rdkit.Chem.rdchem.Mol object at 0x7f5838ccde70>, <rdkit.Chem.rdchem.Mol object at 0x7f5838cce0a0>]","[0, 0, 0, 5587, 5588, 5589, 5590, 5591, 5592, 5593, 5594, 1, 5595, 5596, 5597, 5598, 5599]"
PJ1,IDIC,-5.38,-3.38,-5.706,-4.002666666666667,0.667,CF,DIO,130.0,PEDOT:PSS,PDINO,6.18,6.16,0.958,53.6,"[<rdkit.Chem.rdchem.Mol object at 0x7f5838cce420>, <rdkit.Chem.rdchem.Mol object at 0x7f5838ccdbd0>, <rdkit.Chem.rdchem.Mol object at 0x7f5838ccee30>, <rdkit.Chem.rdchem.Mol object at 0x7f5838cce650>, <rdkit.Chem.rdchem.Mol object at 0x7f5838cce3b0>, <rdkit.Chem.rdchem.Mol object at 0x7f5838cce9d0>, <rdkit.Chem.rdchem.Mol object at 0x7f5838cce880>, <rdkit.Chem.rdchem.Mol object at 0x7f5838cce180>]","[<rdkit.Chem.rdchem.Mol object at 0x7f5838ccf370>, <rdkit.Chem.rdchem.Mol object at 0x7f5838ccd8c0>, <rdkit.Chem.rdchem.Mol object at 0x7f5838ccc350>, <rdkit.Chem.rdchem.Mol object at 0x7f5838ccf060>]","[<rdkit.Chem.rdchem.Mol object at 0x7f5838cce420>, <rdkit.Chem.rdchem.Mol object at 0x7f5838ccdbd0>, <rdkit.Chem.rdchem.Mol object at 0x7f5838ccee30>, <rdkit.Chem.rdchem.Mol object at 0x7f5838cce650>, <rdkit.Chem.rdchem.Mol object at 0x7f5838cce3b0>, <rdkit.Chem.rdchem.Mol object at 0x7f5838cce9d0>, <rdkit.Chem.rdchem.Mol object at 0x7f5838cce880>, <rdkit.Chem.rdchem.Mol object at 0x7f5838cce180>, '.', <rdkit.Chem.rdchem.Mol object at 0x7f5838ccf370>, <rdkit.Chem.rdchem.Mol object at 0x7f5838ccd8c0>, <rdkit.Chem.rdchem.Mol object at 0x7f5838ccc350>, <rdkit.Chem.rdchem.Mol object at 0x7f5838ccf060>]","[0, 0, 0, 0, 5600, 5601, 5602, 5603, 5604, 5605, 5606, 5607, 1, 5608, 5609, 5610, 5611]"
PJ2,m-ITIC,-5.14,-3.33,-5.526666666666667,-3.8515384615384622,0.667,CF,DIO,130.0,PEDOT:PSS,PDINO,10.34,10.34,0.988,62.3,"[<rdkit.Chem.rdchem.Mol object at 0x7f5838cceb90>, <rdkit.Chem.rdchem.Mol object at 0x7f5838ccda80>, <rdkit.Chem.rdchem.Mol object at 0x7f5838ccd540>, <rdkit.Chem.rdchem.Mol object at 0x7f5838cccf20>, <rdkit.Chem.rdchem.Mol object at 0x7f5838ccc120>, <rdkit.Chem.rdchem.Mol object at 0x7f5838ccf760>]","[<rdkit.Chem.rdchem.Mol object at 0x7f5838ccd7e0>, <rdkit.Chem.rdchem.Mol object at 0x7f5838ccd850>, <rdkit.Chem.rdchem.Mol object at 0x7f5838ccf300>, <rdkit.Chem.rdchem.Mol object at 0x7f5838ccd770>, <rdkit.Chem.rdchem.Mol object at 0x7f5838cce960>]","[<rdkit.Chem.rdchem.Mol object at 0x7f5838cceb90>, <rdkit.Chem.rdchem.Mol object at 0x7f5838ccda80>, <rdkit.Chem.rdchem.Mol object at 0x7f5838ccd540>, <rdkit.Chem.rdchem.Mol object at 0x7f5838cccf20>, <rdkit.Chem.rdchem.Mol object at 0x7f5838ccc120>, <rdkit.Chem.rdchem.Mol object at 0x7f5838ccf760>, '.', <rdkit.Chem.rdchem.Mol object at 0x7f5838ccd7e0>, <rdkit.Chem.rdchem.Mol object at 0x7f5838ccd850>, <rdkit.Chem.rdchem.Mol object at 0x7f5838ccf300>, <rdkit.Chem.rdchem.Mol object at 0x7f5838ccd770>, <rdkit.Chem.rdchem.Mol object at 0x7f5838cce960>]","[0, 0, 0, 0, 0, 5612, 5613, 5614, 5615, 5616, 5617, 1, 5618, 5619, 5620, 5621, 5622]"
PJ2,IDIC,-5.14,-3.33,-5.706,-4.002666666666667,0.667,CF,DIO,130.0,PEDOT:PSS,PDINO,12.01,12.02,0.939,75.3,"[<rdkit.Chem.rdchem.Mol object at 0x7f5838ccd3f0>, <rdkit.Chem.rdchem.Mol object at 0x7f5838ccf0d0>, <rdkit.Chem.rdchem.Mol object at 0x7f5838ccf290>, <rdkit.Chem.rdchem.Mol object at 0x7f5838ccf450>, <rdkit.Chem.rdchem.Mol object at 0x7f5838ccc660>, <rdkit.Chem.rdchem.Mol object at 0x7f5838ccfca0>]","[<rdkit.Chem.rdchem.Mol object at 0x7f5838cceea0>, <rdkit.Chem.rdchem.Mol object at 0x7f5838ccc270>, <rdkit.Chem.rdchem.Mol object at 0x7f5838ccf680>, <rdkit.Chem.rdchem.Mol object at 0x7f5838ccf140>]","[<rdkit.Chem.rdchem.Mol object at 0x7f5838ccd3f0>, <rdkit.Chem.rdchem.Mol object at 0x7f5838ccf0d0>, <rdkit.Chem.rdchem.Mol object at 0x7f5838ccf290>, <rdkit.Chem.rdchem.Mol object at 0x7f5838ccf450>, <rdkit.Chem.rdchem.Mol object at 0x7f5838ccc660>, <rdkit.Chem.rdchem.Mol object at 0x7f5838ccfca0>, '.', <rdkit.Chem.rdchem.Mol object at 0x7f5838cceea0>, <rdkit.Chem.rdchem.Mol object at 0x7f5838ccc270>, <rdkit.Chem.rdchem.Mol object at 0x7f5838ccf680>, <rdkit.Chem.rdchem.Mol object at 0x7f5838ccf140>]","[0, 0, 0, 0, 0, 0, 5623, 5624, 5625, 5626, 5627, 5628, 1, 5629, 5630, 5631, 5632]"
PJ3,IDIC,-5.01,-3.26,-5.706,-4.002666666666667,0.667,CF,DIO,130.0,PEDOT:PSS,PDINO,8.11,8.11,0.908,69.8,"[<rdkit.Chem.rdchem.Mol object at 0x7f5838ccfc30>, <rdkit.Chem.rdchem.Mol object at 0x7f5838ccd0e0>, <rdkit.Chem.rdchem.Mol object at 0x7f5838ccfa00>, <rdkit.Chem.rdchem.Mol object at 0x7f5838ccf990>, <rdkit.Chem.rdchem.Mol object at 0x7f5838ccfbc0>, <rdkit.Chem.rdchem.Mol object at 0x7f5838ccf4c0>]","[<rdkit.Chem.rdchem.Mol object at 0x7f5838ccfe60>, <rdkit.Chem.rdchem.Mol object at 0x7f5838ccf610>, <rdkit.Chem.rdchem.Mol object at 0x7f5838ccfdf0>, <rdkit.Chem.rdchem.Mol object at 0x7f5838ccff40>]","[<rdkit.Chem.rdchem.Mol object at 0x7f5838ccfc30>, <rdkit.Chem.rdchem.Mol object at 0x7f5838ccd0e0>, <rdkit.Chem.rdchem.Mol object at 0x7f5838ccfa00>, <rdkit.Chem.rdchem.Mol object at 0x7f5838ccf990>, <rdkit.Chem.rdchem.Mol object at 0x7f5838ccfbc0>, <rdkit.Chem.rdchem.Mol object at 0x7f5838ccf4c0>, '.', <rdkit.Chem.rdchem.Mol object at 0x7f5838ccfe60>, <rdkit.Chem.rdchem.Mol object at 0x7f5838ccf610>, <rdkit.Chem.rdchem.Mol object at 0x7f5838ccfdf0>, <rdkit.Chem.rdchem.Mol object at 0x7f5838ccff40>]","[0, 0, 0, 0, 0, 0, 5644, 5645, 5646, 5647, 5648, 5649, 1, 5650, 5651, 5652, 5653]"
2D-PBTCl,ITIC,-5.45,-3.6,-5.574146341463415,-3.915,1.0,CB,DIO,25.0,MoOx,ZnO,8.81,8.81,0.91,61.32,"[<rdkit.Chem.rdchem.Mol object at 0x7f5838ccfa70>, <rdkit.Chem.rdchem.Mol object at 0x7f5838ccf1b0>, <rdkit.Chem.rdchem.Mol object at 0x7f5838cccdd0>, <rdkit.Chem.rdchem.Mol object at 0x7f5838ccf6f0>, <rdkit.Chem.rdchem.Mol object at 0x7f5838cce110>, <rdkit.Chem.rdchem.Mol object at 0x7f5838ccfed0>, <rdkit.Chem.rdchem.Mol object at 0x7f5838cd8580>]","[<rdkit.Chem.rdchem.Mol object at 0x7f5838ccfb50>, <rdkit.Chem.rdchem.Mol object at 0x7f5838cd86d0>, <rdkit.Chem.rdchem.Mol object at 0x7f5838ccf7d0>, <rdkit.Chem.rdchem.Mol object at 0x7f5838ccf220>, <rdkit.Chem.rdchem.Mol object at 0x7f5838cd87b0>]","[<rdkit.Chem.rdchem.Mol object at 0x7f5838ccfa70>, <rdkit.Chem.rdchem.Mol object at 0x7f5838ccf1b0>, <rdkit.Chem.rdchem.Mol object at 0x7f5838cccdd0>, <rdkit.Chem.rdchem.Mol object at 0x7f5838ccf6f0>, <rdkit.Chem.rdchem.Mol object at 0x7f5838cce110>, <rdkit.Chem.rdchem.Mol object at 0x7f5838ccfed0>, <rdkit.Chem.rdchem.Mol object at 0x7f5838cd8580>, '.', <rdkit.Chem.rdchem.Mol object at 0x7f5838ccfb50>, <rdkit.Chem.rdchem.Mol object at 0x7f5838cd86d0>, <rdkit.Chem.rdchem.Mol object at 0x7f5838ccf7d0>, <rdkit.Chem.rdchem.Mol object at 0x7f5838ccf220>, <rdkit.Chem.rdchem.Mol object at 0x7f5838cd87b0>]","[0, 0, 0, 0, 5654, 5655, 5656, 5657, 5658, 5659, 5660, 1, 5661, 5662, 5663, 5664, 5665]"
PTB7-Th,ITIC,-5.204782608695651,-3.5391891891891896,-5.574146341463415,-3.915,1.0,CB,DIO,25.0,MoOx,ZnO,6.91,6.91,0.82,57.09,"[<rdkit.Chem.rdchem.Mol object at 0x7f5838ccf920>, <rdkit.Chem.rdchem.Mol object at 0x7f5838cceb20>, <rdkit.Chem.rdchem.Mol object at 0x7f5838cd8200>, <rdkit.Chem.rdchem.Mol object at 0x7f5838cd8f20>, <rdkit.Chem.rdchem.Mol object at 0x7f5838cd85f0>, <rdkit.Chem.rdchem.Mol object at 0x7f5838cd80b0>, <rdkit.Chem.rdchem.Mol object at 0x7f5838cd8900>]","[<rdkit.Chem.rdchem.Mol object at 0x7f5838cd8430>, <rdkit.Chem.rdchem.Mol object at 0x7f5838cd8cf0>, <rdkit.Chem.rdchem.Mol object at 0x7f5838cd8e40>, <rdkit.Chem.rdchem.Mol object at 0x7f5838cd8510>, <rdkit.Chem.rdchem.Mol object at 0x7f5838cd90e0>]","[<rdkit.Chem.rdchem.Mol object at 0x7f5838ccf920>, <rdkit.Chem.rdchem.Mol object at 0x7f5838cceb20>, <rdkit.Chem.rdchem.Mol object at 0x7f5838cd8200>, <rdkit.Chem.rdchem.Mol object at 0x7f5838cd8f20>, <rdkit.Chem.rdchem.Mol object at 0x7f5838cd85f0>, <rdkit.Chem.rdchem.Mol object at 0x7f5838cd80b0>, <rdkit.Chem.rdchem.Mol object at 0x7f5838cd8900>, '.', <rdkit.Chem.rdchem.Mol object at 0x7f5838cd8430>, <rdkit.Chem.rdchem.Mol object at 0x7f5838cd8cf0>, <rdkit.Chem.rdchem.Mol object at 0x7f5838cd8e40>, <rdkit.Chem.rdchem.Mol object at 0x7f5838cd8510>, <rdkit.Chem.rdchem.Mol object at 0x7f5838cd90e0>]","[0, 0, 0, 0, 5679, 5680, 5681, 5682, 5683, 5684, 5685, 1, 5686, 5687, 5688, 5689, 5690]"
PBDB-T,BDCPDT-IC,-5.297714285714285,-3.4170000000000003,-5.41,-3.87,1.0,CB,DIO,25.0,MoOx,ZnO,9.33,9.33,0.86,65.52,"[<rdkit.Chem.rdchem.Mol object at 0x7f5838cce7a0>, <rdkit.Chem.rdchem.Mol object at 0x7f5838cd8ba0>, <rdkit.Chem.rdchem.Mol object at 0x7f5838cd8890>, <rdkit.Chem.rdchem.Mol object at 0x7f5838cd9930>, <rdkit.Chem.rdchem.Mol object at 0x7f5838cda3b0>]","[<rdkit.Chem.rdchem.Mol object at 0x7f5838cda6c0>, <rdkit.Chem.rdchem.Mol object at 0x7f5838cd95b0>, <rdkit.Chem.rdchem.Mol object at 0x7f5838cd9af0>, <rdkit.Chem.rdchem.Mol object at 0x7f5838cd9bd0>, <rdkit.Chem.rdchem.Mol object at 0x7f5838cd9150>]","[<rdkit.Chem.rdchem.Mol object at 0x7f5838cce7a0>, <rdkit.Chem.rdchem.Mol object at 0x7f5838cd8ba0>, <rdkit.Chem.rdchem.Mol object at 0x7f5838cd8890>, <rdkit.Chem.rdchem.Mol object at 0x7f5838cd9930>, <rdkit.Chem.rdchem.Mol object at 0x7f5838cda3b0>, '.', <rdkit.Chem.rdchem.Mol object at 0x7f5838cda6c0>, <rdkit.Chem.rdchem.Mol object at 0x7f5838cd95b0>, <rdkit.Chem.rdchem.Mol object at 0x7f5838cd9af0>, <rdkit.Chem.rdchem.Mol object at 0x7f5838cd9bd0>, <rdkit.Chem.rdchem.Mol object at 0x7f5838cd9150>]","[0, 0, 0, 0, 0, 0, 5703, 5704, 5705, 5706, 5707, 1, 5708, 5709, 5710, 5711, 5712]"
PBDB-T,BDCPDT-FIC,-5.297714285714285,-3.4170000000000003,-5.52,-4.0,1.0,CB,_,25.0,MoOx,ZnO,8.12,8.12,0.7,60.67,"[<rdkit.Chem.rdchem.Mol object at 0x7f5838ccf530>, <rdkit.Chem.rdchem.Mol object at 0x7f5838cd9cb0>, <rdkit.Chem.rdchem.Mol object at 0x7f5838cd9ee0>, <rdkit.Chem.rdchem.Mol object at 0x7f5838cd9850>, <rdkit.Chem.rdchem.Mol object at 0x7f5838cda880>]","[<rdkit.Chem.rdchem.Mol object at 0x7f5838cdaab0>, <rdkit.Chem.rdchem.Mol object at 0x7f5838cd8c10>, <rdkit.Chem.rdchem.Mol object at 0x7f5838cd9e00>, <rdkit.Chem.rdchem.Mol object at 0x7f5838cd91c0>, <rdkit.Chem.rdchem.Mol object at 0x7f5838cd8d60>]","[<rdkit.Chem.rdchem.Mol object at 0x7f5838ccf530>, <rdkit.Chem.rdchem.Mol object at 0x7f5838cd9cb0>, <rdkit.Chem.rdchem.Mol object at 0x7f5838cd9ee0>, <rdkit.Chem.rdchem.Mol object at 0x7f5838cd9850>, <rdkit.Chem.rdchem.Mol object at 0x7f5838cda880>, '.', <rdkit.Chem.rdchem.Mol object at 0x7f5838cdaab0>, <rdkit.Chem.rdchem.Mol object at 0x7f5838cd8c10>, <rdkit.Chem.rdchem.Mol object at 0x7f5838cd9e00>, <rdkit.Chem.rdchem.Mol object at 0x7f5838cd91c0>, <rdkit.Chem.rdchem.Mol object at 0x7f5838cd8d60>]","[0, 0, 0, 0, 0, 0, 5713, 5714, 5715, 5716, 5717, 1, 5718, 5719, 5720, 5721, 5722]"