Donor,Acceptor,HOMO_D_eV,LUMO_D_eV,HOMO_A_eV,LUMO_A_eV,D_A_ratio_m_m,solvent,solvent_additive,annealing_temperature,hole_contact_layer,electron_contact_layer,PCE_percent,calc_PCE_percent,Voc_V,FF_percent,Donor_BRICS,Acceptor_BRICS,DA_pair_BRICS,DA_tokenized_BRICS
PBFTT,ITIC,-5.47,-3.56,-5.574146341463415,-3.915,0.667,CB,_,25.0,MoOx,ZnO,9.1,9.1,0.94,60.5,"[<rdkit.Chem.rdchem.Mol object at 0x7f5838cd9e70>, <rdkit.Chem.rdchem.Mol object at 0x7f5838cd8740>, <rdkit.Chem.rdchem.Mol object at 0x7f5838cd8660>, <rdkit.Chem.rdchem.Mol object at 0x7f5838cd89e0>, <rdkit.Chem.rdchem.Mol object at 0x7f5838cda7a0>, <rdkit.Chem.rdchem.Mol object at 0x7f5838cda9d0>, <rdkit.Chem.rdchem.Mol object at 0x7f5838cda570>]","[<rdkit.Chem.rdchem.Mol object at 0x7f5838cda5e0>, <rdkit.Chem.rdchem.Mol object at 0x7f5838cd9d90>, <rdkit.Chem.rdchem.Mol object at 0x7f5838cda500>, <rdkit.Chem.rdchem.Mol object at 0x7f5838cd84a0>, <rdkit.Chem.rdchem.Mol object at 0x7f5838cd8040>]","[<rdkit.Chem.rdchem.Mol object at 0x7f5838cd9e70>, <rdkit.Chem.rdchem.Mol object at 0x7f5838cd8740>, <rdkit.Chem.rdchem.Mol object at 0x7f5838cd8660>, <rdkit.Chem.rdchem.Mol object at 0x7f5838cd89e0>, <rdkit.Chem.rdchem.Mol object at 0x7f5838cda7a0>, <rdkit.Chem.rdchem.Mol object at 0x7f5838cda9d0>, <rdkit.Chem.rdchem.Mol object at 0x7f5838cda570>, '.', <rdkit.Chem.rdchem.Mol object at 0x7f5838cda5e0>, <rdkit.Chem.rdchem.Mol object at 0x7f5838cd9d90>, <rdkit.Chem.rdchem.Mol object at 0x7f5838cda500>, <rdkit.Chem.rdchem.Mol object at 0x7f5838cd84a0>, <rdkit.Chem.rdchem.Mol object at 0x7f5838cd8040>]","[0, 0, 0, 0, 5723, 5724, 5725, 5726, 5727, 5728, 5729, 1, 5730, 5731, 5732, 5733, 5734]"
PBDB-O,ITIC,-5.3,-2.82,-5.574146341463415,-3.915,1.0,CB,DIO,160.0,MoOx,ZnO,4.35,4.32,0.846,43.3,"[<rdkit.Chem.rdchem.Mol object at 0x7f5838cda2d0>, <rdkit.Chem.rdchem.Mol object at 0x7f5838cd8c80>, <rdkit.Chem.rdchem.Mol object at 0x7f5838cd9690>, <rdkit.Chem.rdchem.Mol object at 0x7f5838cda260>, <rdkit.Chem.rdchem.Mol object at 0x7f5838cd97e0>, <rdkit.Chem.rdchem.Mol object at 0x7f5838cd8f90>, <rdkit.Chem.rdchem.Mol object at 0x7f5838cda180>]","[<rdkit.Chem.rdchem.Mol object at 0x7f5838cd9070>, <rdkit.Chem.rdchem.Mol object at 0x7f5838cd9b60>, <rdkit.Chem.rdchem.Mol object at 0x7f5838cda650>, <rdkit.Chem.rdchem.Mol object at 0x7f5838cd98c0>, <rdkit.Chem.rdchem.Mol object at 0x7f5838cda110>]","[<rdkit.Chem.rdchem.Mol object at 0x7f5838cda2d0>, <rdkit.Chem.rdchem.Mol object at 0x7f5838cd8c80>, <rdkit.Chem.rdchem.Mol object at 0x7f5838cd9690>, <rdkit.Chem.rdchem.Mol object at 0x7f5838cda260>, <rdkit.Chem.rdchem.Mol object at 0x7f5838cd97e0>, <rdkit.Chem.rdchem.Mol object at 0x7f5838cd8f90>, <rdkit.Chem.rdchem.Mol object at 0x7f5838cda180>, '.', <rdkit.Chem.rdchem.Mol object at 0x7f5838cd9070>, <rdkit.Chem.rdchem.Mol object at 0x7f5838cd9b60>, <rdkit.Chem.rdchem.Mol object at 0x7f5838cda650>, <rdkit.Chem.rdchem.Mol object at 0x7f5838cd98c0>, <rdkit.Chem.rdchem.Mol object at 0x7f5838cda110>]","[0, 0, 0, 0, 5735, 5736, 5737, 5738, 5739, 5740, 5741, 1, 5742, 5743, 5744, 5745, 5746]"
PBZ,ITIC,-5.18,-3.22,-5.574146341463415,-3.915,0.8,CB,_,25.0,MoOx,ZnO,8.0,8.02,0.79,59.0,"[<rdkit.Chem.rdchem.Mol object at 0x7f5838cdb220>, <rdkit.Chem.rdchem.Mol object at 0x7f5838cdb5a0>, <rdkit.Chem.rdchem.Mol object at 0x7f5838cdbe60>, <rdkit.Chem.rdchem.Mol object at 0x7f5838cdbae0>, <rdkit.Chem.rdchem.Mol object at 0x7f5838cd9770>, <rdkit.Chem.rdchem.Mol object at 0x7f5838cdb920>]","[<rdkit.Chem.rdchem.Mol object at 0x7f5838cdb7d0>, <rdkit.Chem.rdchem.Mol object at 0x7f5838cdbb50>, <rdkit.Chem.rdchem.Mol object at 0x7f5838cda420>, <rdkit.Chem.rdchem.Mol object at 0x7f5838cdac00>, <rdkit.Chem.rdchem.Mol object at 0x7f5838cd8120>]","[<rdkit.Chem.rdchem.Mol object at 0x7f5838cdb220>, <rdkit.Chem.rdchem.Mol object at 0x7f5838cdb5a0>, <rdkit.Chem.rdchem.Mol object at 0x7f5838cdbe60>, <rdkit.Chem.rdchem.Mol object at 0x7f5838cdbae0>, <rdkit.Chem.rdchem.Mol object at 0x7f5838cd9770>, <rdkit.Chem.rdchem.Mol object at 0x7f5838cdb920>, '.', <rdkit.Chem.rdchem.Mol object at 0x7f5838cdb7d0>, <rdkit.Chem.rdchem.Mol object at 0x7f5838cdbb50>, <rdkit.Chem.rdchem.Mol object at 0x7f5838cda420>, <rdkit.Chem.rdchem.Mol object at 0x7f5838cdac00>, <rdkit.Chem.rdchem.Mol object at 0x7f5838cd8120>]","[0, 0, 0, 0, 0, 5779, 5780, 5781, 5782, 5783, 5784, 1, 5785, 5786, 5787, 5788, 5789]"
PFBZ,ITIC,-5.36,-3.42,-5.574146341463415,-3.915,0.8,CB,_,25.0,MoOx,ZnO,10.4,10.37,0.89,62.0,"[<rdkit.Chem.rdchem.Mol object at 0x7f5838cdba00>, <rdkit.Chem.rdchem.Mol object at 0x7f5838cdbd80>, <rdkit.Chem.rdchem.Mol object at 0x7f5838cda730>, <rdkit.Chem.rdchem.Mol object at 0x7f5838cdbed0>, <rdkit.Chem.rdchem.Mol object at 0x7f5838cdbc30>, <rdkit.Chem.rdchem.Mol object at 0x7f5838ce0f90>, <rdkit.Chem.rdchem.Mol object at 0x7f5838ce0900>]","[<rdkit.Chem.rdchem.Mol object at 0x7f5838cdbd10>, <rdkit.Chem.rdchem.Mol object at 0x7f5838cda0a0>, <rdkit.Chem.rdchem.Mol object at 0x7f5838cda810>, <rdkit.Chem.rdchem.Mol object at 0x7f5838cdace0>, <rdkit.Chem.rdchem.Mol object at 0x7f5838ce0d60>]","[<rdkit.Chem.rdchem.Mol object at 0x7f5838cdba00>, <rdkit.Chem.rdchem.Mol object at 0x7f5838cdbd80>, <rdkit.Chem.rdchem.Mol object at 0x7f5838cda730>, <rdkit.Chem.rdchem.Mol object at 0x7f5838cdbed0>, <rdkit.Chem.rdchem.Mol object at 0x7f5838cdbc30>, <rdkit.Chem.rdchem.Mol object at 0x7f5838ce0f90>, <rdkit.Chem.rdchem.Mol object at 0x7f5838ce0900>, '.', <rdkit.Chem.rdchem.Mol object at 0x7f5838cdbd10>, <rdkit.Chem.rdchem.Mol object at 0x7f5838cda0a0>, <rdkit.Chem.rdchem.Mol object at 0x7f5838cda810>, <rdkit.Chem.rdchem.Mol object at 0x7f5838cdace0>, <rdkit.Chem.rdchem.Mol object at 0x7f5838ce0d60>]","[0, 0, 0, 0, 5790, 5791, 5792, 5793, 5794, 5795, 5796, 1, 5797, 5798, 5799, 5800, 5801]"
J51,ITIC,-5.24,-3.056666666666666,-5.574146341463415,-3.915,0.5,CF,_,25.0,PEDOT:PSS,PDINO,7.03,7.21,0.84,61.0,"[<rdkit.Chem.rdchem.Mol object at 0x7f5838cdb8b0>, <rdkit.Chem.rdchem.Mol object at 0x7f5838cdab90>, <rdkit.Chem.rdchem.Mol object at 0x7f5838ce07b0>, <rdkit.Chem.rdchem.Mol object at 0x7f5838ce0c80>, <rdkit.Chem.rdchem.Mol object at 0x7f5838ce1000>, <rdkit.Chem.rdchem.Mol object at 0x7f5838ce0740>]","[<rdkit.Chem.rdchem.Mol object at 0x7f5838cdbdf0>, <rdkit.Chem.rdchem.Mol object at 0x7f5838ce0820>, <rdkit.Chem.rdchem.Mol object at 0x7f5838cdaa40>, <rdkit.Chem.rdchem.Mol object at 0x7f5838cdbca0>, <rdkit.Chem.rdchem.Mol object at 0x7f5838ce1070>]","[<rdkit.Chem.rdchem.Mol object at 0x7f5838cdb8b0>, <rdkit.Chem.rdchem.Mol object at 0x7f5838cdab90>, <rdkit.Chem.rdchem.Mol object at 0x7f5838ce07b0>, <rdkit.Chem.rdchem.Mol object at 0x7f5838ce0c80>, <rdkit.Chem.rdchem.Mol object at 0x7f5838ce1000>, <rdkit.Chem.rdchem.Mol object at 0x7f5838ce0740>, '.', <rdkit.Chem.rdchem.Mol object at 0x7f5838cdbdf0>, <rdkit.Chem.rdchem.Mol object at 0x7f5838ce0820>, <rdkit.Chem.rdchem.Mol object at 0x7f5838cdaa40>, <rdkit.Chem.rdchem.Mol object at 0x7f5838cdbca0>, <rdkit.Chem.rdchem.Mol object at 0x7f5838ce1070>]","[0, 0, 0, 0, 0, 5802, 5803, 5804, 5805, 5806, 5807, 1, 5808, 5809, 5810, 5811, 5812]"
J60,ITIC,-5.32,-3.08,-5.574146341463415,-3.915,1.0,CF,_,25.0,PEDOT:PSS,PDINO,5.17,5.17,0.92,57.45,"[<rdkit.Chem.rdchem.Mol object at 0x7f5838cd9700>, <rdkit.Chem.rdchem.Mol object at 0x7f5838cdb300>, <rdkit.Chem.rdchem.Mol object at 0x7f5838cd9f50>, <rdkit.Chem.rdchem.Mol object at 0x7f5838ce09e0>, <rdkit.Chem.rdchem.Mol object at 0x7f5838ce0040>, <rdkit.Chem.rdchem.Mol object at 0x7f5838ce0e40>, <rdkit.Chem.rdchem.Mol object at 0x7f5838ce1310>]","[<rdkit.Chem.rdchem.Mol object at 0x7f5838cd93f0>, <rdkit.Chem.rdchem.Mol object at 0x7f5838ce02e0>, <rdkit.Chem.rdchem.Mol object at 0x7f5838cdb610>, <rdkit.Chem.rdchem.Mol object at 0x7f5838ce12a0>, <rdkit.Chem.rdchem.Mol object at 0x7f5838ce0c10>]","[<rdkit.Chem.rdchem.Mol object at 0x7f5838cd9700>, <rdkit.Chem.rdchem.Mol object at 0x7f5838cdb300>, <rdkit.Chem.rdchem.Mol object at 0x7f5838cd9f50>, <rdkit.Chem.rdchem.Mol object at 0x7f5838ce09e0>, <rdkit.Chem.rdchem.Mol object at 0x7f5838ce0040>, <rdkit.Chem.rdchem.Mol object at 0x7f5838ce0e40>, <rdkit.Chem.rdchem.Mol object at 0x7f5838ce1310>, '.', <rdkit.Chem.rdchem.Mol object at 0x7f5838cd93f0>, <rdkit.Chem.rdchem.Mol object at 0x7f5838ce02e0>, <rdkit.Chem.rdchem.Mol object at 0x7f5838cdb610>, <rdkit.Chem.rdchem.Mol object at 0x7f5838ce12a0>, <rdkit.Chem.rdchem.Mol object at 0x7f5838ce0c10>]","[0, 0, 0, 0, 5813, 5814, 5815, 5816, 5817, 5818, 5819, 1, 5820, 5821, 5822, 5823, 5824]"
PTB7,IEICO-4F,-5.175,-3.435,-5.309971428571429,-3.851028571428572,0.667,CB,DIO,25.0,PEDOT:PSS,PFN-Br,2.3,2.3,0.54,28.92,"[<rdkit.Chem.rdchem.Mol object at 0x7f5838cdb530>, <rdkit.Chem.rdchem.Mol object at 0x7f5838ce0970>, <rdkit.Chem.rdchem.Mol object at 0x7f5838ce0510>, <rdkit.Chem.rdchem.Mol object at 0x7f5838ce0cf0>, <rdkit.Chem.rdchem.Mol object at 0x7f5838ce1620>]","[<rdkit.Chem.rdchem.Mol object at 0x7f5838cd9a80>, <rdkit.Chem.rdchem.Mol object at 0x7f5838ce13f0>, <rdkit.Chem.rdchem.Mol object at 0x7f5838ce0660>, <rdkit.Chem.rdchem.Mol object at 0x7f5838ce0a50>, <rdkit.Chem.rdchem.Mol object at 0x7f5838ce0f20>, <rdkit.Chem.rdchem.Mol object at 0x7f5838ce0120>, <rdkit.Chem.rdchem.Mol object at 0x7f5838ce1ee0>, <rdkit.Chem.rdchem.Mol object at 0x7f5838ce1b60>]","[<rdkit.Chem.rdchem.Mol object at 0x7f5838cdb530>, <rdkit.Chem.rdchem.Mol object at 0x7f5838ce0970>, <rdkit.Chem.rdchem.Mol object at 0x7f5838ce0510>, <rdkit.Chem.rdchem.Mol object at 0x7f5838ce0cf0>, <rdkit.Chem.rdchem.Mol object at 0x7f5838ce1620>, '.', <rdkit.Chem.rdchem.Mol object at 0x7f5838cd9a80>, <rdkit.Chem.rdchem.Mol object at 0x7f5838ce13f0>, <rdkit.Chem.rdchem.Mol object at 0x7f5838ce0660>, <rdkit.Chem.rdchem.Mol object at 0x7f5838ce0a50>, <rdkit.Chem.rdchem.Mol object at 0x7f5838ce0f20>, <rdkit.Chem.rdchem.Mol object at 0x7f5838ce0120>, <rdkit.Chem.rdchem.Mol object at 0x7f5838ce1ee0>, <rdkit.Chem.rdchem.Mol object at 0x7f5838ce1b60>]","[0, 0, 0, 5837, 5838, 5839, 5840, 5841, 1, 5842, 5843, 5844, 5845, 5846, 5847, 5848, 5849]"
PTB7-Th,IEICO-4F,-5.204782608695651,-3.5391891891891896,-5.309971428571429,-3.851028571428572,0.667,CB,CN,25.0,PEDOT:PSS,PFN-Br,11.6,11.6,0.72,69.41,"[<rdkit.Chem.rdchem.Mol object at 0x7f5838ce2110>, <rdkit.Chem.rdchem.Mol object at 0x7f5838ce1a80>, <rdkit.Chem.rdchem.Mol object at 0x7f5838ce1bd0>, <rdkit.Chem.rdchem.Mol object at 0x7f5838ce1d20>, <rdkit.Chem.rdchem.Mol object at 0x7f5838ce1460>, <rdkit.Chem.rdchem.Mol object at 0x7f5838ce17e0>, <rdkit.Chem.rdchem.Mol object at 0x7f5838ce0270>]","[<rdkit.Chem.rdchem.Mol object at 0x7f5838ce1af0>, <rdkit.Chem.rdchem.Mol object at 0x7f5838ce0ba0>, <rdkit.Chem.rdchem.Mol object at 0x7f5838ce1e00>, <rdkit.Chem.rdchem.Mol object at 0x7f5838ce1c40>, <rdkit.Chem.rdchem.Mol object at 0x7f5838ce0350>, <rdkit.Chem.rdchem.Mol object at 0x7f5838ce06d0>, <rdkit.Chem.rdchem.Mol object at 0x7f5838ce2570>, <rdkit.Chem.rdchem.Mol object at 0x7f5838ce1fc0>]","[<rdkit.Chem.rdchem.Mol object at 0x7f5838ce2110>, <rdkit.Chem.rdchem.Mol object at 0x7f5838ce1a80>, <rdkit.Chem.rdchem.Mol object at 0x7f5838ce1bd0>, <rdkit.Chem.rdchem.Mol object at 0x7f5838ce1d20>, <rdkit.Chem.rdchem.Mol object at 0x7f5838ce1460>, <rdkit.Chem.rdchem.Mol object at 0x7f5838ce17e0>, <rdkit.Chem.rdchem.Mol object at 0x7f5838ce0270>, '.', <rdkit.Chem.rdchem.Mol object at 0x7f5838ce1af0>, <rdkit.Chem.rdchem.Mol object at 0x7f5838ce0ba0>, <rdkit.Chem.rdchem.Mol object at 0x7f5838ce1e00>, <rdkit.Chem.rdchem.Mol object at 0x7f5838ce1c40>, <rdkit.Chem.rdchem.Mol object at 0x7f5838ce0350>, <rdkit.Chem.rdchem.Mol object at 0x7f5838ce06d0>, <rdkit.Chem.rdchem.Mol object at 0x7f5838ce2570>, <rdkit.Chem.rdchem.Mol object at 0x7f5838ce1fc0>]","[0, 5850, 5851, 5852, 5853, 5854, 5855, 5856, 1, 5857, 5858, 5859, 5860, 5861, 5862, 5863, 5864]"
PBO,ITIC,-5.47,-3.67,-5.574146341463415,-3.915,0.5,DCB,DIO,25.0,PEDOT:PSS,LiF,7.1,7.1,0.92,54.0,"[<rdkit.Chem.rdchem.Mol object at 0x7f5838ce2490>, <rdkit.Chem.rdchem.Mol object at 0x7f5838ce2260>, <rdkit.Chem.rdchem.Mol object at 0x7f5838ce27a0>, <rdkit.Chem.rdchem.Mol object at 0x7f5838ce0580>, <rdkit.Chem.rdchem.Mol object at 0x7f5838ce00b0>, <rdkit.Chem.rdchem.Mol object at 0x7f5838ce20a0>, <rdkit.Chem.rdchem.Mol object at 0x7f5838ce1d90>, <rdkit.Chem.rdchem.Mol object at 0x7f5838ce0ac0>, <rdkit.Chem.rdchem.Mol object at 0x7f5838ce15b0>]","[<rdkit.Chem.rdchem.Mol object at 0x7f5838ce1380>, <rdkit.Chem.rdchem.Mol object at 0x7f5838ce14d0>, <rdkit.Chem.rdchem.Mol object at 0x7f5838ce1930>, <rdkit.Chem.rdchem.Mol object at 0x7f5838ce2340>, <rdkit.Chem.rdchem.Mol object at 0x7f5838ce1e70>]","[<rdkit.Chem.rdchem.Mol object at 0x7f5838ce2490>, <rdkit.Chem.rdchem.Mol object at 0x7f5838ce2260>, <rdkit.Chem.rdchem.Mol object at 0x7f5838ce27a0>, <rdkit.Chem.rdchem.Mol object at 0x7f5838ce0580>, <rdkit.Chem.rdchem.Mol object at 0x7f5838ce00b0>, <rdkit.Chem.rdchem.Mol object at 0x7f5838ce20a0>, <rdkit.Chem.rdchem.Mol object at 0x7f5838ce1d90>, <rdkit.Chem.rdchem.Mol object at 0x7f5838ce0ac0>, <rdkit.Chem.rdchem.Mol object at 0x7f5838ce15b0>, '.', <rdkit.Chem.rdchem.Mol object at 0x7f5838ce1380>, <rdkit.Chem.rdchem.Mol object at 0x7f5838ce14d0>, <rdkit.Chem.rdchem.Mol object at 0x7f5838ce1930>, <rdkit.Chem.rdchem.Mol object at 0x7f5838ce2340>, <rdkit.Chem.rdchem.Mol object at 0x7f5838ce1e70>]","[0, 0, 5865, 5866, 5867, 5868, 5869, 5870, 5871, 5872, 5873, 1, 5874, 5875, 5876, 5877, 5878]"
PBDB-T,TTIC-M,-5.297714285714285,-3.4170000000000003,-5.49,-4.03,1.0,CB,_,25.0,PEDOT:PSS,PDINO,9.85,9.97,0.83,63.0,"[<rdkit.Chem.rdchem.Mol object at 0x7f5838cd82e0>, <rdkit.Chem.rdchem.Mol object at 0x7f5838ce2500>, <rdkit.Chem.rdchem.Mol object at 0x7f5838ce2030>, <rdkit.Chem.rdchem.Mol object at 0x7f5838ce2960>, <rdkit.Chem.rdchem.Mol object at 0x7f5838ce33e0>]","[<rdkit.Chem.rdchem.Mol object at 0x7f5838ce3610>, <rdkit.Chem.rdchem.Mol object at 0x7f5838ce2b90>, <rdkit.Chem.rdchem.Mol object at 0x7f5838ce1700>, <rdkit.Chem.rdchem.Mol object at 0x7f5838ce2b20>, <rdkit.Chem.rdchem.Mol object at 0x7f5838ce18c0>]","[<rdkit.Chem.rdchem.Mol object at 0x7f5838cd82e0>, <rdkit.Chem.rdchem.Mol object at 0x7f5838ce2500>, <rdkit.Chem.rdchem.Mol object at 0x7f5838ce2030>, <rdkit.Chem.rdchem.Mol object at 0x7f5838ce2960>, <rdkit.Chem.rdchem.Mol object at 0x7f5838ce33e0>, '.', <rdkit.Chem.rdchem.Mol object at 0x7f5838ce3610>, <rdkit.Chem.rdchem.Mol object at 0x7f5838ce2b90>, <rdkit.Chem.rdchem.Mol object at 0x7f5838ce1700>, <rdkit.Chem.rdchem.Mol object at 0x7f5838ce2b20>, <rdkit.Chem.rdchem.Mol object at 0x7f5838ce18c0>]","[0, 0, 0, 0, 0, 0, 5879, 5880, 5881, 5882, 5883, 1, 5884, 5885, 5886, 5887, 5888]"
PBDB-T,TTIC,-5.297714285714285,-3.4170000000000003,-5.54,-4.109999999999999,1.0,CB,_,25.0,PEDOT:PSS,PDINO,10.73,10.87,0.8,66.0,"[<rdkit.Chem.rdchem.Mol object at 0x7f5838ce0190>, <rdkit.Chem.rdchem.Mol object at 0x7f5838ce2f10>, <rdkit.Chem.rdchem.Mol object at 0x7f5838ce2f80>, <rdkit.Chem.rdchem.Mol object at 0x7f5838ce1a10>, <rdkit.Chem.rdchem.Mol object at 0x7f5838ce38b0>]","[<rdkit.Chem.rdchem.Mol object at 0x7f5838ce3ae0>, <rdkit.Chem.rdchem.Mol object at 0x7f5838ce1690>, <rdkit.Chem.rdchem.Mol object at 0x7f5838ce2880>, <rdkit.Chem.rdchem.Mol object at 0x7f5838ce19a0>, <rdkit.Chem.rdchem.Mol object at 0x7f5838ce3450>]","[<rdkit.Chem.rdchem.Mol object at 0x7f5838ce0190>, <rdkit.Chem.rdchem.Mol object at 0x7f5838ce2f10>, <rdkit.Chem.rdchem.Mol object at 0x7f5838ce2f80>, <rdkit.Chem.rdchem.Mol object at 0x7f5838ce1a10>, <rdkit.Chem.rdchem.Mol object at 0x7f5838ce38b0>, '.', <rdkit.Chem.rdchem.Mol object at 0x7f5838ce3ae0>, <rdkit.Chem.rdchem.Mol object at 0x7f5838ce1690>, <rdkit.Chem.rdchem.Mol object at 0x7f5838ce2880>, <rdkit.Chem.rdchem.Mol object at 0x7f5838ce19a0>, <rdkit.Chem.rdchem.Mol object at 0x7f5838ce3450>]","[0, 0, 0, 0, 0, 0, 5889, 5890, 5891, 5892, 5893, 1, 5894, 5895, 5896, 5897, 5898]"
FTAZ,ITIC,-5.43,-3.3200000000000003,-5.574146341463415,-3.915,0.667,CF,_,25.0,MoOx,ZnO,8.77,8.83,0.911,58.0,"[<rdkit.Chem.rdchem.Mol object at 0x7f5838ce21f0>, <rdkit.Chem.rdchem.Mol object at 0x7f5838ce0eb0>, <rdkit.Chem.rdchem.Mol object at 0x7f5838ce34c0>, <rdkit.Chem.rdchem.Mol object at 0x7f5838ce31b0>, <rdkit.Chem.rdchem.Mol object at 0x7f5838ce3d10>, <rdkit.Chem.rdchem.Mol object at 0x7f5838ce2180>]","[<rdkit.Chem.rdchem.Mol object at 0x7f5838ce2ab0>, <rdkit.Chem.rdchem.Mol object at 0x7f5838ce3e60>, <rdkit.Chem.rdchem.Mol object at 0x7f5838ce3530>, <rdkit.Chem.rdchem.Mol object at 0x7f5838ce3a00>, <rdkit.Chem.rdchem.Mol object at 0x7f5838ce37d0>]","[<rdkit.Chem.rdchem.Mol object at 0x7f5838ce21f0>, <rdkit.Chem.rdchem.Mol object at 0x7f5838ce0eb0>, <rdkit.Chem.rdchem.Mol object at 0x7f5838ce34c0>, <rdkit.Chem.rdchem.Mol object at 0x7f5838ce31b0>, <rdkit.Chem.rdchem.Mol object at 0x7f5838ce3d10>, <rdkit.Chem.rdchem.Mol object at 0x7f5838ce2180>, '.', <rdkit.Chem.rdchem.Mol object at 0x7f5838ce2ab0>, <rdkit.Chem.rdchem.Mol object at 0x7f5838ce3e60>, <rdkit.Chem.rdchem.Mol object at 0x7f5838ce3530>, <rdkit.Chem.rdchem.Mol object at 0x7f5838ce3a00>, <rdkit.Chem.rdchem.Mol object at 0x7f5838ce37d0>]","[0, 0, 0, 0, 0, 5920, 5921, 5922, 5923, 5924, 5925, 1, 5926, 5927, 5928, 5929, 5930]"
HTAZ,ITIC,-5.42,-3.44,-5.574146341463415,-3.915,0.667,CF,_,25.0,MoOx,ZnO,4.5,4.52,0.851,40.8,"[<rdkit.Chem.rdchem.Mol object at 0x7f5838ce2650>, <rdkit.Chem.rdchem.Mol object at 0x7f5838ce3d80>, <rdkit.Chem.rdchem.Mol object at 0x7f5838ce2e30>, <rdkit.Chem.rdchem.Mol object at 0x7f5838ce2ea0>, <rdkit.Chem.rdchem.Mol object at 0x7f5838ce2c70>, <rdkit.Chem.rdchem.Mol object at 0x7f5838cec2e0>]","[<rdkit.Chem.rdchem.Mol object at 0x7f5838ce3370>, <rdkit.Chem.rdchem.Mol object at 0x7f5838ce3bc0>, <rdkit.Chem.rdchem.Mol object at 0x7f5838ce36f0>, <rdkit.Chem.rdchem.Mol object at 0x7f5838ce3060>, <rdkit.Chem.rdchem.Mol object at 0x7f5838cec5f0>]","[<rdkit.Chem.rdchem.Mol object at 0x7f5838ce2650>, <rdkit.Chem.rdchem.Mol object at 0x7f5838ce3d80>, <rdkit.Chem.rdchem.Mol object at 0x7f5838ce2e30>, <rdkit.Chem.rdchem.Mol object at 0x7f5838ce2ea0>, <rdkit.Chem.rdchem.Mol object at 0x7f5838ce2c70>, <rdkit.Chem.rdchem.Mol object at 0x7f5838cec2e0>, '.', <rdkit.Chem.rdchem.Mol object at 0x7f5838ce3370>, <rdkit.Chem.rdchem.Mol object at 0x7f5838ce3bc0>, <rdkit.Chem.rdchem.Mol object at 0x7f5838ce36f0>, <rdkit.Chem.rdchem.Mol object at 0x7f5838ce3060>, <rdkit.Chem.rdchem.Mol object at 0x7f5838cec5f0>]","[0, 0, 0, 0, 0, 5931, 5932, 5933, 5934, 5935, 5936, 1, 5937, 5938, 5939, 5940, 5941]"
PTB7-Th,IFT-ECA,-5.204782608695651,-3.5391891891891896,-5.62,-3.58,0.667,DCB,CN,25.0,MoOx,ZnO,0.03,0.04,0.76,23.6,"[<rdkit.Chem.rdchem.Mol object at 0x7f5838ce3b50>, <rdkit.Chem.rdchem.Mol object at 0x7f5838ce0890>, <rdkit.Chem.rdchem.Mol object at 0x7f5838ce3290>, <rdkit.Chem.rdchem.Mol object at 0x7f5838ce3f40>, <rdkit.Chem.rdchem.Mol object at 0x7f5838ce3df0>, <rdkit.Chem.rdchem.Mol object at 0x7f5838ce3300>, <rdkit.Chem.rdchem.Mol object at 0x7f5838cec7b0>]","[<rdkit.Chem.rdchem.Mol object at 0x7f5838ce35a0>, <rdkit.Chem.rdchem.Mol object at 0x7f5838ce1cb0>, <rdkit.Chem.rdchem.Mol object at 0x7f5838ce3840>, <rdkit.Chem.rdchem.Mol object at 0x7f5838cec040>, <rdkit.Chem.rdchem.Mol object at 0x7f5838cec580>, <rdkit.Chem.rdchem.Mol object at 0x7f5838cec4a0>]","[<rdkit.Chem.rdchem.Mol object at 0x7f5838ce3b50>, <rdkit.Chem.rdchem.Mol object at 0x7f5838ce0890>, <rdkit.Chem.rdchem.Mol object at 0x7f5838ce3290>, <rdkit.Chem.rdchem.Mol object at 0x7f5838ce3f40>, <rdkit.Chem.rdchem.Mol object at 0x7f5838ce3df0>, <rdkit.Chem.rdchem.Mol object at 0x7f5838ce3300>, <rdkit.Chem.rdchem.Mol object at 0x7f5838cec7b0>, '.', <rdkit.Chem.rdchem.Mol object at 0x7f5838ce35a0>, <rdkit.Chem.rdchem.Mol object at 0x7f5838ce1cb0>, <rdkit.Chem.rdchem.Mol object at 0x7f5838ce3840>, <rdkit.Chem.rdchem.Mol object at 0x7f5838cec040>, <rdkit.Chem.rdchem.Mol object at 0x7f5838cec580>, <rdkit.Chem.rdchem.Mol object at 0x7f5838cec4a0>]","[0, 0, 0, 5942, 5943, 5944, 5945, 5946, 5947, 5948, 1, 5949, 5950, 5951, 5952, 5953, 5954]"