Donor,Acceptor,HOMO_D_eV,LUMO_D_eV,HOMO_A_eV,LUMO_A_eV,D_A_ratio_m_m,solvent,solvent_additive,annealing_temperature,hole_contact_layer,electron_contact_layer,PCE_percent,calc_PCE_percent,Voc_V,FF_percent,Donor_BRICS,Acceptor_BRICS,DA_pair_BRICS,DA_tokenized_BRICS
Pff4TBT-2DT,IDFBR,-5.34,-3.7,-5.75,-3.7,1.0,CB,_,25.0,MoOx,ZnO,1.75,1.81,1.08,38.0,"[<rdkit.Chem.rdchem.Mol object at 0x7f5838d6fbc0>, <rdkit.Chem.rdchem.Mol object at 0x7f5838d890e0>, <rdkit.Chem.rdchem.Mol object at 0x7f5838d88510>, <rdkit.Chem.rdchem.Mol object at 0x7f5838d89460>, <rdkit.Chem.rdchem.Mol object at 0x7f5838d89230>, <rdkit.Chem.rdchem.Mol object at 0x7f5838d894d0>]","[<rdkit.Chem.rdchem.Mol object at 0x7f5838d89690>, <rdkit.Chem.rdchem.Mol object at 0x7f5838d89540>, <rdkit.Chem.rdchem.Mol object at 0x7f5838d895b0>, <rdkit.Chem.rdchem.Mol object at 0x7f5838d886d0>, <rdkit.Chem.rdchem.Mol object at 0x7f5838d88ba0>]","[<rdkit.Chem.rdchem.Mol object at 0x7f5838d6fbc0>, <rdkit.Chem.rdchem.Mol object at 0x7f5838d890e0>, <rdkit.Chem.rdchem.Mol object at 0x7f5838d88510>, <rdkit.Chem.rdchem.Mol object at 0x7f5838d89460>, <rdkit.Chem.rdchem.Mol object at 0x7f5838d89230>, <rdkit.Chem.rdchem.Mol object at 0x7f5838d894d0>, '.', <rdkit.Chem.rdchem.Mol object at 0x7f5838d89690>, <rdkit.Chem.rdchem.Mol object at 0x7f5838d89540>, <rdkit.Chem.rdchem.Mol object at 0x7f5838d895b0>, <rdkit.Chem.rdchem.Mol object at 0x7f5838d886d0>, <rdkit.Chem.rdchem.Mol object at 0x7f5838d88ba0>]","[0, 0, 0, 0, 0, 1852, 1853, 1854, 1855, 1856, 1857, 1, 1858, 1859, 1860, 1861, 1862]"
Pff4TBT-2DT,IDTBR,-5.34,-3.7,-5.5,-3.9,1.0,CB,_,25.0,MoOx,ZnO,9.95,9.95,1.07,62.0,"[<rdkit.Chem.rdchem.Mol object at 0x7f5838d6f140>, <rdkit.Chem.rdchem.Mol object at 0x7f5838d883c0>, <rdkit.Chem.rdchem.Mol object at 0x7f5838d893f0>, <rdkit.Chem.rdchem.Mol object at 0x7f5838d892a0>, <rdkit.Chem.rdchem.Mol object at 0x7f5838d89700>, <rdkit.Chem.rdchem.Mol object at 0x7f5838d89850>]","[<rdkit.Chem.rdchem.Mol object at 0x7f5838d89a80>, <rdkit.Chem.rdchem.Mol object at 0x7f5838d898c0>, <rdkit.Chem.rdchem.Mol object at 0x7f5838d88040>, <rdkit.Chem.rdchem.Mol object at 0x7f5838d88e40>, <rdkit.Chem.rdchem.Mol object at 0x7f5838d88970>]","[<rdkit.Chem.rdchem.Mol object at 0x7f5838d6f140>, <rdkit.Chem.rdchem.Mol object at 0x7f5838d883c0>, <rdkit.Chem.rdchem.Mol object at 0x7f5838d893f0>, <rdkit.Chem.rdchem.Mol object at 0x7f5838d892a0>, <rdkit.Chem.rdchem.Mol object at 0x7f5838d89700>, <rdkit.Chem.rdchem.Mol object at 0x7f5838d89850>, '.', <rdkit.Chem.rdchem.Mol object at 0x7f5838d89a80>, <rdkit.Chem.rdchem.Mol object at 0x7f5838d898c0>, <rdkit.Chem.rdchem.Mol object at 0x7f5838d88040>, <rdkit.Chem.rdchem.Mol object at 0x7f5838d88e40>, <rdkit.Chem.rdchem.Mol object at 0x7f5838d88970>]","[0, 0, 0, 0, 0, 1863, 1864, 1865, 1866, 1867, 1868, 1, 1869, 1870, 1871, 1872, 1873]"
J71,TTz1,-5.353333333333333,-3.4318181818181825,-5.59,-3.66,0.5,CF,DIO,25.0,MoOx,ZnO,8.77,8.77,0.9,63.18,"[<rdkit.Chem.rdchem.Mol object at 0x7f5838d89930>, <rdkit.Chem.rdchem.Mol object at 0x7f5838d887b0>, <rdkit.Chem.rdchem.Mol object at 0x7f5838d89af0>, <rdkit.Chem.rdchem.Mol object at 0x7f5838d89e00>, <rdkit.Chem.rdchem.Mol object at 0x7f5838d89ee0>, <rdkit.Chem.rdchem.Mol object at 0x7f5838d8a490>]","[<rdkit.Chem.rdchem.Mol object at 0x7f5838d8a260>, <rdkit.Chem.rdchem.Mol object at 0x7f5838d8a340>, <rdkit.Chem.rdchem.Mol object at 0x7f5838d89fc0>, <rdkit.Chem.rdchem.Mol object at 0x7f5838d89b60>, <rdkit.Chem.rdchem.Mol object at 0x7f5838d8a110>, <rdkit.Chem.rdchem.Mol object at 0x7f5838d89310>, <rdkit.Chem.rdchem.Mol object at 0x7f5838d88270>]","[<rdkit.Chem.rdchem.Mol object at 0x7f5838d89930>, <rdkit.Chem.rdchem.Mol object at 0x7f5838d887b0>, <rdkit.Chem.rdchem.Mol object at 0x7f5838d89af0>, <rdkit.Chem.rdchem.Mol object at 0x7f5838d89e00>, <rdkit.Chem.rdchem.Mol object at 0x7f5838d89ee0>, <rdkit.Chem.rdchem.Mol object at 0x7f5838d8a490>, '.', <rdkit.Chem.rdchem.Mol object at 0x7f5838d8a260>, <rdkit.Chem.rdchem.Mol object at 0x7f5838d8a340>, <rdkit.Chem.rdchem.Mol object at 0x7f5838d89fc0>, <rdkit.Chem.rdchem.Mol object at 0x7f5838d89b60>, <rdkit.Chem.rdchem.Mol object at 0x7f5838d8a110>, <rdkit.Chem.rdchem.Mol object at 0x7f5838d89310>, <rdkit.Chem.rdchem.Mol object at 0x7f5838d88270>]","[0, 0, 0, 1874, 1875, 1876, 1877, 1878, 1879, 1, 1880, 1881, 1882, 1883, 1884, 1885, 1886]"
J71,TTz2,-5.353333333333333,-3.4318181818181825,-5.45,-3.5,0.5,CF,DIO,25.0,MoOx,ZnO,6.3,6.3,0.92,53.73,"[<rdkit.Chem.rdchem.Mol object at 0x7f5838d8a5e0>, <rdkit.Chem.rdchem.Mol object at 0x7f5838d89e70>, <rdkit.Chem.rdchem.Mol object at 0x7f5838d897e0>, <rdkit.Chem.rdchem.Mol object at 0x7f5838d89bd0>, <rdkit.Chem.rdchem.Mol object at 0x7f5838d8a500>, <rdkit.Chem.rdchem.Mol object at 0x7f5838d8aa40>]","[<rdkit.Chem.rdchem.Mol object at 0x7f5838d8a810>, <rdkit.Chem.rdchem.Mol object at 0x7f5838d891c0>, <rdkit.Chem.rdchem.Mol object at 0x7f5838d8a570>, <rdkit.Chem.rdchem.Mol object at 0x7f5838d89620>, <rdkit.Chem.rdchem.Mol object at 0x7f5838d8a3b0>, <rdkit.Chem.rdchem.Mol object at 0x7f5838d8a2d0>]","[<rdkit.Chem.rdchem.Mol object at 0x7f5838d8a5e0>, <rdkit.Chem.rdchem.Mol object at 0x7f5838d89e70>, <rdkit.Chem.rdchem.Mol object at 0x7f5838d897e0>, <rdkit.Chem.rdchem.Mol object at 0x7f5838d89bd0>, <rdkit.Chem.rdchem.Mol object at 0x7f5838d8a500>, <rdkit.Chem.rdchem.Mol object at 0x7f5838d8aa40>, '.', <rdkit.Chem.rdchem.Mol object at 0x7f5838d8a810>, <rdkit.Chem.rdchem.Mol object at 0x7f5838d891c0>, <rdkit.Chem.rdchem.Mol object at 0x7f5838d8a570>, <rdkit.Chem.rdchem.Mol object at 0x7f5838d89620>, <rdkit.Chem.rdchem.Mol object at 0x7f5838d8a3b0>, <rdkit.Chem.rdchem.Mol object at 0x7f5838d8a2d0>]","[0, 0, 0, 0, 1887, 1888, 1889, 1890, 1891, 1892, 1, 1893, 1894, 1895, 1896, 1897, 1898]"
PBDB-T,FTIC-C8C6,-5.297714285714285,-3.4170000000000003,-5.62,-3.83,1.0,DCB,DIO,25.0,MoOx,PFN-Br,9.91,9.99,0.92,67.46,"[<rdkit.Chem.rdchem.Mol object at 0x7f5838d88f20>, <rdkit.Chem.rdchem.Mol object at 0x7f5838d8a030>, <rdkit.Chem.rdchem.Mol object at 0x7f5838d8a730>, <rdkit.Chem.rdchem.Mol object at 0x7f5838d8adc0>, <rdkit.Chem.rdchem.Mol object at 0x7f5838d8b7d0>]","[<rdkit.Chem.rdchem.Mol object at 0x7f5838d8ba00>, <rdkit.Chem.rdchem.Mol object at 0x7f5838d8af80>, <rdkit.Chem.rdchem.Mol object at 0x7f5838d8aab0>, <rdkit.Chem.rdchem.Mol object at 0x7f5838d8b290>]","[<rdkit.Chem.rdchem.Mol object at 0x7f5838d88f20>, <rdkit.Chem.rdchem.Mol object at 0x7f5838d8a030>, <rdkit.Chem.rdchem.Mol object at 0x7f5838d8a730>, <rdkit.Chem.rdchem.Mol object at 0x7f5838d8adc0>, <rdkit.Chem.rdchem.Mol object at 0x7f5838d8b7d0>, '.', <rdkit.Chem.rdchem.Mol object at 0x7f5838d8ba00>, <rdkit.Chem.rdchem.Mol object at 0x7f5838d8af80>, <rdkit.Chem.rdchem.Mol object at 0x7f5838d8aab0>, <rdkit.Chem.rdchem.Mol object at 0x7f5838d8b290>]","[0, 0, 0, 0, 0, 0, 0, 1899, 1900, 1901, 1902, 1903, 1, 1904, 1905, 1906, 1907]"
PBDB-T,FTIC-C6C6,-5.297714285714285,-3.4170000000000003,-5.6,-3.81,1.0,DCB,DIO,25.0,MoOx,PFN-Br,9.18,9.21,0.91,63.17,"[<rdkit.Chem.rdchem.Mol object at 0x7f5838d8af10>, <rdkit.Chem.rdchem.Mol object at 0x7f5838d8aea0>, <rdkit.Chem.rdchem.Mol object at 0x7f5838d8a180>, <rdkit.Chem.rdchem.Mol object at 0x7f5838d89f50>, <rdkit.Chem.rdchem.Mol object at 0x7f5838d8b060>]","[<rdkit.Chem.rdchem.Mol object at 0x7f5838d8be60>, <rdkit.Chem.rdchem.Mol object at 0x7f5838d8a420>, <rdkit.Chem.rdchem.Mol object at 0x7f5838d89c40>, <rdkit.Chem.rdchem.Mol object at 0x7f5838d8b5a0>]","[<rdkit.Chem.rdchem.Mol object at 0x7f5838d8af10>, <rdkit.Chem.rdchem.Mol object at 0x7f5838d8aea0>, <rdkit.Chem.rdchem.Mol object at 0x7f5838d8a180>, <rdkit.Chem.rdchem.Mol object at 0x7f5838d89f50>, <rdkit.Chem.rdchem.Mol object at 0x7f5838d8b060>, '.', <rdkit.Chem.rdchem.Mol object at 0x7f5838d8be60>, <rdkit.Chem.rdchem.Mol object at 0x7f5838d8a420>, <rdkit.Chem.rdchem.Mol object at 0x7f5838d89c40>, <rdkit.Chem.rdchem.Mol object at 0x7f5838d8b5a0>]","[0, 0, 0, 0, 0, 0, 0, 1908, 1909, 1910, 1911, 1912, 1, 1913, 1914, 1915, 1916]"
PBDB-T,FTIC-C6C8,-5.297714285714285,-3.4170000000000003,-5.64,-3.81,1.0,DCB,DIO,25.0,MoOx,PFN-Br,11.12,11.05,0.92,64.72,"[<rdkit.Chem.rdchem.Mol object at 0x7f5838d8a8f0>, <rdkit.Chem.rdchem.Mol object at 0x7f5838d89770>, <rdkit.Chem.rdchem.Mol object at 0x7f5838d8aff0>, <rdkit.Chem.rdchem.Mol object at 0x7f5838d8b3e0>, <rdkit.Chem.rdchem.Mol object at 0x7f5838d8bbc0>]","[<rdkit.Chem.rdchem.Mol object at 0x7f5838d89a10>, <rdkit.Chem.rdchem.Mol object at 0x7f5838d8ace0>, <rdkit.Chem.rdchem.Mol object at 0x7f5838d8b840>, <rdkit.Chem.rdchem.Mol object at 0x7f5838d8b8b0>]","[<rdkit.Chem.rdchem.Mol object at 0x7f5838d8a8f0>, <rdkit.Chem.rdchem.Mol object at 0x7f5838d89770>, <rdkit.Chem.rdchem.Mol object at 0x7f5838d8aff0>, <rdkit.Chem.rdchem.Mol object at 0x7f5838d8b3e0>, <rdkit.Chem.rdchem.Mol object at 0x7f5838d8bbc0>, '.', <rdkit.Chem.rdchem.Mol object at 0x7f5838d89a10>, <rdkit.Chem.rdchem.Mol object at 0x7f5838d8ace0>, <rdkit.Chem.rdchem.Mol object at 0x7f5838d8b840>, <rdkit.Chem.rdchem.Mol object at 0x7f5838d8b8b0>]","[0, 0, 0, 0, 0, 0, 0, 1917, 1918, 1919, 1920, 1921, 1, 1922, 1923, 1924, 1925]"
PBDB-T,IXIC,-5.297714285714285,-3.4170000000000003,-5.13,-3.78,1.0,CF,_,100.0,PEDOT:PSS,ZrAcAc,11.3,11.21,0.82,65.4,"[<rdkit.Chem.rdchem.Mol object at 0x7f5838d8bd80>, <rdkit.Chem.rdchem.Mol object at 0x7f5838d8a880>, <rdkit.Chem.rdchem.Mol object at 0x7f5838d8ba70>, <rdkit.Chem.rdchem.Mol object at 0x7f5838d8a0a0>, <rdkit.Chem.rdchem.Mol object at 0x7f5838d949e0>]","[<rdkit.Chem.rdchem.Mol object at 0x7f5838d8b450>, <rdkit.Chem.rdchem.Mol object at 0x7f5838d8a650>, <rdkit.Chem.rdchem.Mol object at 0x7f5838d89d20>, <rdkit.Chem.rdchem.Mol object at 0x7f5838d8b220>, <rdkit.Chem.rdchem.Mol object at 0x7f5838d945f0>]","[<rdkit.Chem.rdchem.Mol object at 0x7f5838d8bd80>, <rdkit.Chem.rdchem.Mol object at 0x7f5838d8a880>, <rdkit.Chem.rdchem.Mol object at 0x7f5838d8ba70>, <rdkit.Chem.rdchem.Mol object at 0x7f5838d8a0a0>, <rdkit.Chem.rdchem.Mol object at 0x7f5838d949e0>, '.', <rdkit.Chem.rdchem.Mol object at 0x7f5838d8b450>, <rdkit.Chem.rdchem.Mol object at 0x7f5838d8a650>, <rdkit.Chem.rdchem.Mol object at 0x7f5838d89d20>, <rdkit.Chem.rdchem.Mol object at 0x7f5838d8b220>, <rdkit.Chem.rdchem.Mol object at 0x7f5838d945f0>]","[0, 0, 0, 0, 0, 0, 1939, 1940, 1941, 1942, 1943, 1, 1944, 1945, 1946, 1947, 1948]"
HFQx-T,ITTC,-5.45,-3.5,-5.49,-3.85,1.0,CF,_,130.0,PEDOT:PSS,PDINO,10.4,10.3,0.88,71.0,"[<rdkit.Chem.rdchem.Mol object at 0x7f5838d8bf40>, <rdkit.Chem.rdchem.Mol object at 0x7f5838d8a9d0>, <rdkit.Chem.rdchem.Mol object at 0x7f5838d8a7a0>, <rdkit.Chem.rdchem.Mol object at 0x7f5838d94820>, <rdkit.Chem.rdchem.Mol object at 0x7f5838d946d0>, <rdkit.Chem.rdchem.Mol object at 0x7f5838d94d60>, <rdkit.Chem.rdchem.Mol object at 0x7f5838d95540>, <rdkit.Chem.rdchem.Mol object at 0x7f5838d96570>]","[<rdkit.Chem.rdchem.Mol object at 0x7f5838d8b610>, <rdkit.Chem.rdchem.Mol object at 0x7f5838d96110>, <rdkit.Chem.rdchem.Mol object at 0x7f5838d8a6c0>, <rdkit.Chem.rdchem.Mol object at 0x7f5838d96420>, <rdkit.Chem.rdchem.Mol object at 0x7f5838d95d20>]","[<rdkit.Chem.rdchem.Mol object at 0x7f5838d8bf40>, <rdkit.Chem.rdchem.Mol object at 0x7f5838d8a9d0>, <rdkit.Chem.rdchem.Mol object at 0x7f5838d8a7a0>, <rdkit.Chem.rdchem.Mol object at 0x7f5838d94820>, <rdkit.Chem.rdchem.Mol object at 0x7f5838d946d0>, <rdkit.Chem.rdchem.Mol object at 0x7f5838d94d60>, <rdkit.Chem.rdchem.Mol object at 0x7f5838d95540>, <rdkit.Chem.rdchem.Mol object at 0x7f5838d96570>, '.', <rdkit.Chem.rdchem.Mol object at 0x7f5838d8b610>, <rdkit.Chem.rdchem.Mol object at 0x7f5838d96110>, <rdkit.Chem.rdchem.Mol object at 0x7f5838d8a6c0>, <rdkit.Chem.rdchem.Mol object at 0x7f5838d96420>, <rdkit.Chem.rdchem.Mol object at 0x7f5838d95d20>]","[0, 0, 0, 1959, 1960, 1961, 1962, 1963, 1964, 1965, 1966, 1, 1967, 1968, 1969, 1970, 1971]"
PBDB-T,ITIC-OE,-5.297714285714285,-3.4170000000000003,-5.67,-4.03,1.0,CB,DIO,120.0,PEDOT:PSS,PFN-Br,8.4,8.43,0.85,67.0,"[<rdkit.Chem.rdchem.Mol object at 0x7f5838d8bdf0>, <rdkit.Chem.rdchem.Mol object at 0x7f5838d95a10>, <rdkit.Chem.rdchem.Mol object at 0x7f5838d95c40>, <rdkit.Chem.rdchem.Mol object at 0x7f5838d95700>, <rdkit.Chem.rdchem.Mol object at 0x7f5838d94f90>]","[<rdkit.Chem.rdchem.Mol object at 0x7f5838d8bed0>, <rdkit.Chem.rdchem.Mol object at 0x7f5838d951c0>, <rdkit.Chem.rdchem.Mol object at 0x7f5838d961f0>, <rdkit.Chem.rdchem.Mol object at 0x7f5838d94c80>, <rdkit.Chem.rdchem.Mol object at 0x7f5838d967a0>, <rdkit.Chem.rdchem.Mol object at 0x7f5838d94e40>, <rdkit.Chem.rdchem.Mol object at 0x7f5838d95150>, <rdkit.Chem.rdchem.Mol object at 0x7f5838d96c00>]","[<rdkit.Chem.rdchem.Mol object at 0x7f5838d8bdf0>, <rdkit.Chem.rdchem.Mol object at 0x7f5838d95a10>, <rdkit.Chem.rdchem.Mol object at 0x7f5838d95c40>, <rdkit.Chem.rdchem.Mol object at 0x7f5838d95700>, <rdkit.Chem.rdchem.Mol object at 0x7f5838d94f90>, '.', <rdkit.Chem.rdchem.Mol object at 0x7f5838d8bed0>, <rdkit.Chem.rdchem.Mol object at 0x7f5838d951c0>, <rdkit.Chem.rdchem.Mol object at 0x7f5838d961f0>, <rdkit.Chem.rdchem.Mol object at 0x7f5838d94c80>, <rdkit.Chem.rdchem.Mol object at 0x7f5838d967a0>, <rdkit.Chem.rdchem.Mol object at 0x7f5838d94e40>, <rdkit.Chem.rdchem.Mol object at 0x7f5838d95150>, <rdkit.Chem.rdchem.Mol object at 0x7f5838d96c00>]","[0, 0, 0, 1972, 1973, 1974, 1975, 1976, 1, 1977, 1978, 1979, 1980, 1981, 1982, 1983, 1984]"
PBDB-T,ITIC,-5.297714285714285,-3.4170000000000003,-5.574146341463415,-3.915,1.0,CB,DIO,120.0,PEDOT:PSS,PFN-Br,10.4,10.43,0.89,71.0,"[<rdkit.Chem.rdchem.Mol object at 0x7f5838d8b0d0>, <rdkit.Chem.rdchem.Mol object at 0x7f5838d96c70>, <rdkit.Chem.rdchem.Mol object at 0x7f5838d96960>, <rdkit.Chem.rdchem.Mol object at 0x7f5838d96810>, <rdkit.Chem.rdchem.Mol object at 0x7f5838d95e00>]","[<rdkit.Chem.rdchem.Mol object at 0x7f5838d953f0>, <rdkit.Chem.rdchem.Mol object at 0x7f5838d95e70>, <rdkit.Chem.rdchem.Mol object at 0x7f5838d8ab90>, <rdkit.Chem.rdchem.Mol object at 0x7f5838d96180>, <rdkit.Chem.rdchem.Mol object at 0x7f5838d969d0>]","[<rdkit.Chem.rdchem.Mol object at 0x7f5838d8b0d0>, <rdkit.Chem.rdchem.Mol object at 0x7f5838d96c70>, <rdkit.Chem.rdchem.Mol object at 0x7f5838d96960>, <rdkit.Chem.rdchem.Mol object at 0x7f5838d96810>, <rdkit.Chem.rdchem.Mol object at 0x7f5838d95e00>, '.', <rdkit.Chem.rdchem.Mol object at 0x7f5838d953f0>, <rdkit.Chem.rdchem.Mol object at 0x7f5838d95e70>, <rdkit.Chem.rdchem.Mol object at 0x7f5838d8ab90>, <rdkit.Chem.rdchem.Mol object at 0x7f5838d96180>, <rdkit.Chem.rdchem.Mol object at 0x7f5838d969d0>]","[0, 0, 0, 0, 0, 0, 1985, 1986, 1987, 1988, 1989, 1, 1990, 1991, 1992, 1993, 1994]"
PBDB-T,IT-OM-1,-5.297714285714285,-3.4170000000000003,-5.5,-3.76,1.0,CB,_,150.0,MoOx,ZnO,6.3,6.34,1.01,51.0,"[<rdkit.Chem.rdchem.Mol object at 0x7f5838d8ab20>, <rdkit.Chem.rdchem.Mol object at 0x7f5838d95310>, <rdkit.Chem.rdchem.Mol object at 0x7f5838d96880>, <rdkit.Chem.rdchem.Mol object at 0x7f5838d96500>, <rdkit.Chem.rdchem.Mol object at 0x7f5838d950e0>]","[<rdkit.Chem.rdchem.Mol object at 0x7f5838d8ad50>, <rdkit.Chem.rdchem.Mol object at 0x7f5838d94ac0>, <rdkit.Chem.rdchem.Mol object at 0x7f5838d963b0>, <rdkit.Chem.rdchem.Mol object at 0x7f5838d96f80>, <rdkit.Chem.rdchem.Mol object at 0x7f5838d962d0>, <rdkit.Chem.rdchem.Mol object at 0x7f5838d95620>]","[<rdkit.Chem.rdchem.Mol object at 0x7f5838d8ab20>, <rdkit.Chem.rdchem.Mol object at 0x7f5838d95310>, <rdkit.Chem.rdchem.Mol object at 0x7f5838d96880>, <rdkit.Chem.rdchem.Mol object at 0x7f5838d96500>, <rdkit.Chem.rdchem.Mol object at 0x7f5838d950e0>, '.', <rdkit.Chem.rdchem.Mol object at 0x7f5838d8ad50>, <rdkit.Chem.rdchem.Mol object at 0x7f5838d94ac0>, <rdkit.Chem.rdchem.Mol object at 0x7f5838d963b0>, <rdkit.Chem.rdchem.Mol object at 0x7f5838d96f80>, <rdkit.Chem.rdchem.Mol object at 0x7f5838d962d0>, <rdkit.Chem.rdchem.Mol object at 0x7f5838d95620>]","[0, 0, 0, 0, 0, 1995, 1996, 1997, 1998, 1999, 1, 2000, 2001, 2002, 2003, 2004, 2005]"
PBDB-T,IT-OM-2,-5.297714285714285,-3.4170000000000003,-5.49,-3.86,1.0,CB,_,150.0,MoOx,ZnO,11.8,11.9,0.93,73.0,"[<rdkit.Chem.rdchem.Mol object at 0x7f5838d8b4c0>, <rdkit.Chem.rdchem.Mol object at 0x7f5838d94190>, <rdkit.Chem.rdchem.Mol object at 0x7f5838d96730>, <rdkit.Chem.rdchem.Mol object at 0x7f5838d95d90>, <rdkit.Chem.rdchem.Mol object at 0x7f5838d95770>]","[<rdkit.Chem.rdchem.Mol object at 0x7f5838d8ac00>, <rdkit.Chem.rdchem.Mol object at 0x7f5838d94dd0>, <rdkit.Chem.rdchem.Mol object at 0x7f5838d96340>, <rdkit.Chem.rdchem.Mol object at 0x7f5838d966c0>, <rdkit.Chem.rdchem.Mol object at 0x7f5838d95fc0>, <rdkit.Chem.rdchem.Mol object at 0x7f5838d95b60>]","[<rdkit.Chem.rdchem.Mol object at 0x7f5838d8b4c0>, <rdkit.Chem.rdchem.Mol object at 0x7f5838d94190>, <rdkit.Chem.rdchem.Mol object at 0x7f5838d96730>, <rdkit.Chem.rdchem.Mol object at 0x7f5838d95d90>, <rdkit.Chem.rdchem.Mol object at 0x7f5838d95770>, '.', <rdkit.Chem.rdchem.Mol object at 0x7f5838d8ac00>, <rdkit.Chem.rdchem.Mol object at 0x7f5838d94dd0>, <rdkit.Chem.rdchem.Mol object at 0x7f5838d96340>, <rdkit.Chem.rdchem.Mol object at 0x7f5838d966c0>, <rdkit.Chem.rdchem.Mol object at 0x7f5838d95fc0>, <rdkit.Chem.rdchem.Mol object at 0x7f5838d95b60>]","[0, 0, 0, 0, 0, 2006, 2007, 2008, 2009, 2010, 1, 2011, 2012, 2013, 2014, 2015, 2016]"
PBDB-T,IT-OM-3,-5.297714285714285,-3.4170000000000003,-5.52,-3.8,1.0,CB,_,150.0,MoOx,ZnO,10.8,10.8,0.97,68.0,"[<rdkit.Chem.rdchem.Mol object at 0x7f5838d957e0>, <rdkit.Chem.rdchem.Mol object at 0x7f5838d95cb0>, <rdkit.Chem.rdchem.Mol object at 0x7f5838d96ea0>, <rdkit.Chem.rdchem.Mol object at 0x7f5838d94120>, <rdkit.Chem.rdchem.Mol object at 0x7f5838d96b90>]","[<rdkit.Chem.rdchem.Mol object at 0x7f5838d96490>, <rdkit.Chem.rdchem.Mol object at 0x7f5838d94b30>, <rdkit.Chem.rdchem.Mol object at 0x7f5838d97300>, <rdkit.Chem.rdchem.Mol object at 0x7f5838d95ee0>, <rdkit.Chem.rdchem.Mol object at 0x7f5838d96b20>, <rdkit.Chem.rdchem.Mol object at 0x7f5838d95070>]","[<rdkit.Chem.rdchem.Mol object at 0x7f5838d957e0>, <rdkit.Chem.rdchem.Mol object at 0x7f5838d95cb0>, <rdkit.Chem.rdchem.Mol object at 0x7f5838d96ea0>, <rdkit.Chem.rdchem.Mol object at 0x7f5838d94120>, <rdkit.Chem.rdchem.Mol object at 0x7f5838d96b90>, '.', <rdkit.Chem.rdchem.Mol object at 0x7f5838d96490>, <rdkit.Chem.rdchem.Mol object at 0x7f5838d94b30>, <rdkit.Chem.rdchem.Mol object at 0x7f5838d97300>, <rdkit.Chem.rdchem.Mol object at 0x7f5838d95ee0>, <rdkit.Chem.rdchem.Mol object at 0x7f5838d96b20>, <rdkit.Chem.rdchem.Mol object at 0x7f5838d95070>]","[0, 0, 0, 0, 0, 2017, 2018, 2019, 2020, 2021, 1, 2022, 2023, 2024, 2025, 2026, 2027]"
PBDB-T,IT-OM-4,-5.297714285714285,-3.4170000000000003,-5.49,-3.81,1.0,CB,_,150.0,MoOx,ZnO,7.9,7.9,0.96,56.0,"[<rdkit.Chem.rdchem.Mol object at 0x7f5838d940b0>, <rdkit.Chem.rdchem.Mol object at 0x7f5838d96260>, <rdkit.Chem.rdchem.Mol object at 0x7f5838d95bd0>, <rdkit.Chem.rdchem.Mol object at 0x7f5838d94510>, <rdkit.Chem.rdchem.Mol object at 0x7f5838d97530>]","[<rdkit.Chem.rdchem.Mol object at 0x7f5838d96f10>, <rdkit.Chem.rdchem.Mol object at 0x7f5838d97370>, <rdkit.Chem.rdchem.Mol object at 0x7f5838d97840>, <rdkit.Chem.rdchem.Mol object at 0x7f5838d94ba0>, <rdkit.Chem.rdchem.Mol object at 0x7f5838d960a0>, <rdkit.Chem.rdchem.Mol object at 0x7f5838d94270>]","[<rdkit.Chem.rdchem.Mol object at 0x7f5838d940b0>, <rdkit.Chem.rdchem.Mol object at 0x7f5838d96260>, <rdkit.Chem.rdchem.Mol object at 0x7f5838d95bd0>, <rdkit.Chem.rdchem.Mol object at 0x7f5838d94510>, <rdkit.Chem.rdchem.Mol object at 0x7f5838d97530>, '.', <rdkit.Chem.rdchem.Mol object at 0x7f5838d96f10>, <rdkit.Chem.rdchem.Mol object at 0x7f5838d97370>, <rdkit.Chem.rdchem.Mol object at 0x7f5838d97840>, <rdkit.Chem.rdchem.Mol object at 0x7f5838d94ba0>, <rdkit.Chem.rdchem.Mol object at 0x7f5838d960a0>, <rdkit.Chem.rdchem.Mol object at 0x7f5838d94270>]","[0, 0, 0, 0, 0, 2028, 2029, 2030, 2031, 2032, 1, 2033, 2034, 2035, 2036, 2037, 2038]"