Donor,Acceptor,HOMO_D_eV,LUMO_D_eV,HOMO_A_eV,LUMO_A_eV,D_A_ratio_m_m,solvent,solvent_additive,annealing_temperature,hole_contact_layer,electron_contact_layer,PCE_percent,calc_PCE_percent,Voc_V,FF_percent,Donor_BRICS,Acceptor_BRICS,DA_pair_BRICS,DA_tokenized_BRICS
PTB7-Th,BTA7,-5.204782608695651,-3.5391891891891896,-5.56,-3.66,0.5,CF,DPE,80.0,PEDOT:PSS,Ca,4.6,4.6,1.05,42.0,"[<rdkit.Chem.rdchem.Mol object at 0x7f5838cf95b0>, <rdkit.Chem.rdchem.Mol object at 0x7f5838cfab90>, <rdkit.Chem.rdchem.Mol object at 0x7f5838cfa810>, <rdkit.Chem.rdchem.Mol object at 0x7f5838cfab20>, <rdkit.Chem.rdchem.Mol object at 0x7f5838cfa180>, <rdkit.Chem.rdchem.Mol object at 0x7f5838cfa9d0>, <rdkit.Chem.rdchem.Mol object at 0x7f5838cfa490>]","[<rdkit.Chem.rdchem.Mol object at 0x7f5838cfadc0>, <rdkit.Chem.rdchem.Mol object at 0x7f5838cfa880>, <rdkit.Chem.rdchem.Mol object at 0x7f5838cfa420>, <rdkit.Chem.rdchem.Mol object at 0x7f5838cfa570>, <rdkit.Chem.rdchem.Mol object at 0x7f5838cfb990>, <rdkit.Chem.rdchem.Mol object at 0x7f5838cfb8b0>]","[<rdkit.Chem.rdchem.Mol object at 0x7f5838cf95b0>, <rdkit.Chem.rdchem.Mol object at 0x7f5838cfab90>, <rdkit.Chem.rdchem.Mol object at 0x7f5838cfa810>, <rdkit.Chem.rdchem.Mol object at 0x7f5838cfab20>, <rdkit.Chem.rdchem.Mol object at 0x7f5838cfa180>, <rdkit.Chem.rdchem.Mol object at 0x7f5838cfa9d0>, <rdkit.Chem.rdchem.Mol object at 0x7f5838cfa490>, '.', <rdkit.Chem.rdchem.Mol object at 0x7f5838cfadc0>, <rdkit.Chem.rdchem.Mol object at 0x7f5838cfa880>, <rdkit.Chem.rdchem.Mol object at 0x7f5838cfa420>, <rdkit.Chem.rdchem.Mol object at 0x7f5838cfa570>, <rdkit.Chem.rdchem.Mol object at 0x7f5838cfb990>, <rdkit.Chem.rdchem.Mol object at 0x7f5838cfb8b0>]","[0, 0, 0, 6132, 6133, 6134, 6135, 6136, 6137, 6138, 1, 6139, 6140, 6141, 6142, 6143, 6144]"
PTB7-Th,BTA1,-5.204782608695651,-3.5391891891891896,-5.510000000000001,-3.5499999999999994,0.5,CF,DPE,80.0,PEDOT:PSS,Ca,0.06,0.05,0.93,29.0,"[<rdkit.Chem.rdchem.Mol object at 0x7f5838cfb840>, <rdkit.Chem.rdchem.Mol object at 0x7f5838cfb7d0>, <rdkit.Chem.rdchem.Mol object at 0x7f5838cfb920>, <rdkit.Chem.rdchem.Mol object at 0x7f5838cfb760>, <rdkit.Chem.rdchem.Mol object at 0x7f5838cfb300>, <rdkit.Chem.rdchem.Mol object at 0x7f5838cfb3e0>, <rdkit.Chem.rdchem.Mol object at 0x7f5838cfaa40>]","[<rdkit.Chem.rdchem.Mol object at 0x7f5838cf8cf0>, <rdkit.Chem.rdchem.Mol object at 0x7f5838cfaff0>, <rdkit.Chem.rdchem.Mol object at 0x7f5838cfb220>, <rdkit.Chem.rdchem.Mol object at 0x7f5838cfb370>, <rdkit.Chem.rdchem.Mol object at 0x7f5838cfb140>, <rdkit.Chem.rdchem.Mol object at 0x7f5838cfbed0>, <rdkit.Chem.rdchem.Mol object at 0x7f5838cfbf40>]","[<rdkit.Chem.rdchem.Mol object at 0x7f5838cfb840>, <rdkit.Chem.rdchem.Mol object at 0x7f5838cfb7d0>, <rdkit.Chem.rdchem.Mol object at 0x7f5838cfb920>, <rdkit.Chem.rdchem.Mol object at 0x7f5838cfb760>, <rdkit.Chem.rdchem.Mol object at 0x7f5838cfb300>, <rdkit.Chem.rdchem.Mol object at 0x7f5838cfb3e0>, <rdkit.Chem.rdchem.Mol object at 0x7f5838cfaa40>, '.', <rdkit.Chem.rdchem.Mol object at 0x7f5838cf8cf0>, <rdkit.Chem.rdchem.Mol object at 0x7f5838cfaff0>, <rdkit.Chem.rdchem.Mol object at 0x7f5838cfb220>, <rdkit.Chem.rdchem.Mol object at 0x7f5838cfb370>, <rdkit.Chem.rdchem.Mol object at 0x7f5838cfb140>, <rdkit.Chem.rdchem.Mol object at 0x7f5838cfbed0>, <rdkit.Chem.rdchem.Mol object at 0x7f5838cfbf40>]","[0, 0, 6145, 6146, 6147, 6148, 6149, 6150, 6151, 1, 6152, 6153, 6154, 6155, 6156, 6157, 6158]"
P3HT,BTA1,-5.057777777777777,-2.989444444444445,-5.510000000000001,-3.5499999999999994,1.667,CF,CN,100.0,PEDOT:PSS,Ca,5.24,5.24,1.02,70.0,"[<rdkit.Chem.rdchem.Mol object at 0x7f5838cef4c0>, <rdkit.Chem.rdchem.Mol object at 0x7f5838cf93f0>, <rdkit.Chem.rdchem.Mol object at 0x7f5838cf84a0>, <rdkit.Chem.rdchem.Mol object at 0x7f5838cf8430>]","[<rdkit.Chem.rdchem.Mol object at 0x7f5838cf9cb0>, <rdkit.Chem.rdchem.Mol object at 0x7f5838cfbd80>, <rdkit.Chem.rdchem.Mol object at 0x7f5838cf8dd0>, <rdkit.Chem.rdchem.Mol object at 0x7f5838cf9230>, <rdkit.Chem.rdchem.Mol object at 0x7f5838cf86d0>, <rdkit.Chem.rdchem.Mol object at 0x7f5838d04ba0>, <rdkit.Chem.rdchem.Mol object at 0x7f5838cfa3b0>]","[<rdkit.Chem.rdchem.Mol object at 0x7f5838cef4c0>, <rdkit.Chem.rdchem.Mol object at 0x7f5838cf93f0>, <rdkit.Chem.rdchem.Mol object at 0x7f5838cf84a0>, <rdkit.Chem.rdchem.Mol object at 0x7f5838cf8430>, '.', <rdkit.Chem.rdchem.Mol object at 0x7f5838cf9cb0>, <rdkit.Chem.rdchem.Mol object at 0x7f5838cfbd80>, <rdkit.Chem.rdchem.Mol object at 0x7f5838cf8dd0>, <rdkit.Chem.rdchem.Mol object at 0x7f5838cf9230>, <rdkit.Chem.rdchem.Mol object at 0x7f5838cf86d0>, <rdkit.Chem.rdchem.Mol object at 0x7f5838d04ba0>, <rdkit.Chem.rdchem.Mol object at 0x7f5838cfa3b0>]","[0, 0, 0, 0, 0, 6173, 6174, 6175, 6176, 1, 6177, 6178, 6179, 6180, 6181, 6182, 6183]"
P3HT,BTA2,-5.057777777777777,-2.989444444444445,-5.43,-3.3800000000000003,0.6,CF,DIO,100.0,PEDOT:PSS,Ca,4.5,4.5,1.22,60.0,"[<rdkit.Chem.rdchem.Mol object at 0x7f5838cfac00>, <rdkit.Chem.rdchem.Mol object at 0x7f5838cf9ee0>, <rdkit.Chem.rdchem.Mol object at 0x7f5838cf8eb0>, <rdkit.Chem.rdchem.Mol object at 0x7f5838cf80b0>]","[<rdkit.Chem.rdchem.Mol object at 0x7f5838cf8350>, <rdkit.Chem.rdchem.Mol object at 0x7f5838cfbb50>, <rdkit.Chem.rdchem.Mol object at 0x7f5838cfaf10>, <rdkit.Chem.rdchem.Mol object at 0x7f5838cf82e0>, <rdkit.Chem.rdchem.Mol object at 0x7f5838cfb1b0>, <rdkit.Chem.rdchem.Mol object at 0x7f5838d05070>, <rdkit.Chem.rdchem.Mol object at 0x7f5838cfa260>]","[<rdkit.Chem.rdchem.Mol object at 0x7f5838cfac00>, <rdkit.Chem.rdchem.Mol object at 0x7f5838cf9ee0>, <rdkit.Chem.rdchem.Mol object at 0x7f5838cf8eb0>, <rdkit.Chem.rdchem.Mol object at 0x7f5838cf80b0>, '.', <rdkit.Chem.rdchem.Mol object at 0x7f5838cf8350>, <rdkit.Chem.rdchem.Mol object at 0x7f5838cfbb50>, <rdkit.Chem.rdchem.Mol object at 0x7f5838cfaf10>, <rdkit.Chem.rdchem.Mol object at 0x7f5838cf82e0>, <rdkit.Chem.rdchem.Mol object at 0x7f5838cfb1b0>, <rdkit.Chem.rdchem.Mol object at 0x7f5838d05070>, <rdkit.Chem.rdchem.Mol object at 0x7f5838cfa260>]","[0, 0, 0, 0, 0, 6184, 6185, 6186, 6187, 1, 6188, 6189, 6190, 6191, 6192, 6193, 6194]"
P3HT,BT2,-5.057777777777777,-2.989444444444445,-5.5,-3.53,1.5,CF,_,150.0,PEDOT:PSS,Ca,4.93,4.93,0.97,67.0,"[<rdkit.Chem.rdchem.Mol object at 0x7f5838cfb610>, <rdkit.Chem.rdchem.Mol object at 0x7f5838cf9fc0>, <rdkit.Chem.rdchem.Mol object at 0x7f5838cf89e0>, <rdkit.Chem.rdchem.Mol object at 0x7f5838cf8ba0>]","[<rdkit.Chem.rdchem.Mol object at 0x7f5838cfa730>, <rdkit.Chem.rdchem.Mol object at 0x7f5838cfbdf0>, <rdkit.Chem.rdchem.Mol object at 0x7f5838cf8820>, <rdkit.Chem.rdchem.Mol object at 0x7f5838cfb290>, <rdkit.Chem.rdchem.Mol object at 0x7f5838cfb680>, <rdkit.Chem.rdchem.Mol object at 0x7f5838cfb530>]","[<rdkit.Chem.rdchem.Mol object at 0x7f5838cfb610>, <rdkit.Chem.rdchem.Mol object at 0x7f5838cf9fc0>, <rdkit.Chem.rdchem.Mol object at 0x7f5838cf89e0>, <rdkit.Chem.rdchem.Mol object at 0x7f5838cf8ba0>, '.', <rdkit.Chem.rdchem.Mol object at 0x7f5838cfa730>, <rdkit.Chem.rdchem.Mol object at 0x7f5838cfbdf0>, <rdkit.Chem.rdchem.Mol object at 0x7f5838cf8820>, <rdkit.Chem.rdchem.Mol object at 0x7f5838cfb290>, <rdkit.Chem.rdchem.Mol object at 0x7f5838cfb680>, <rdkit.Chem.rdchem.Mol object at 0x7f5838cfb530>]","[0, 0, 0, 0, 0, 0, 6195, 6196, 6197, 6198, 1, 6199, 6200, 6201, 6202, 6203, 6204]"
P3HT,BT2b,-5.057777777777777,-2.989444444444445,-5.41,-3.56,1.0,CF,_,150.0,PEDOT:PSS,Ca,6.08,6.08,0.92,66.0,"[<rdkit.Chem.rdchem.Mol object at 0x7f5838cfa7a0>, <rdkit.Chem.rdchem.Mol object at 0x7f5838cf9f50>, <rdkit.Chem.rdchem.Mol object at 0x7f5838cfb060>, <rdkit.Chem.rdchem.Mol object at 0x7f5838cf9c40>]","[<rdkit.Chem.rdchem.Mol object at 0x7f5838cfb450>, <rdkit.Chem.rdchem.Mol object at 0x7f5838cfa5e0>, <rdkit.Chem.rdchem.Mol object at 0x7f5838cf9070>, <rdkit.Chem.rdchem.Mol object at 0x7f5838cfa030>, <rdkit.Chem.rdchem.Mol object at 0x7f5838cfbca0>]","[<rdkit.Chem.rdchem.Mol object at 0x7f5838cfa7a0>, <rdkit.Chem.rdchem.Mol object at 0x7f5838cf9f50>, <rdkit.Chem.rdchem.Mol object at 0x7f5838cfb060>, <rdkit.Chem.rdchem.Mol object at 0x7f5838cf9c40>, '.', <rdkit.Chem.rdchem.Mol object at 0x7f5838cfb450>, <rdkit.Chem.rdchem.Mol object at 0x7f5838cfa5e0>, <rdkit.Chem.rdchem.Mol object at 0x7f5838cf9070>, <rdkit.Chem.rdchem.Mol object at 0x7f5838cfa030>, <rdkit.Chem.rdchem.Mol object at 0x7f5838cfbca0>]","[0, 0, 0, 0, 0, 0, 0, 6205, 6206, 6207, 6208, 1, 6209, 6210, 6211, 6212, 6213]"
PBDB-T,CDTCN,-5.297714285714285,-3.4170000000000003,-5.39,-3.8,1.0,CB,DIO,80.0,MoOx,ZnO,6.23,6.22,0.96,57.58,"[<rdkit.Chem.rdchem.Mol object at 0x7f5838cf9690>, <rdkit.Chem.rdchem.Mol object at 0x7f5838cfae30>, <rdkit.Chem.rdchem.Mol object at 0x7f5838cf9770>, <rdkit.Chem.rdchem.Mol object at 0x7f5838cf97e0>, <rdkit.Chem.rdchem.Mol object at 0x7f5838d04200>]","[<rdkit.Chem.rdchem.Mol object at 0x7f5838cfa6c0>, <rdkit.Chem.rdchem.Mol object at 0x7f5838cfa0a0>, <rdkit.Chem.rdchem.Mol object at 0x7f5838cf8190>, <rdkit.Chem.rdchem.Mol object at 0x7f5838cf8c80>, <rdkit.Chem.rdchem.Mol object at 0x7f5838cfa2d0>, <rdkit.Chem.rdchem.Mol object at 0x7f5838d04580>, <rdkit.Chem.rdchem.Mol object at 0x7f5838cf8270>]","[<rdkit.Chem.rdchem.Mol object at 0x7f5838cf9690>, <rdkit.Chem.rdchem.Mol object at 0x7f5838cfae30>, <rdkit.Chem.rdchem.Mol object at 0x7f5838cf9770>, <rdkit.Chem.rdchem.Mol object at 0x7f5838cf97e0>, <rdkit.Chem.rdchem.Mol object at 0x7f5838d04200>, '.', <rdkit.Chem.rdchem.Mol object at 0x7f5838cfa6c0>, <rdkit.Chem.rdchem.Mol object at 0x7f5838cfa0a0>, <rdkit.Chem.rdchem.Mol object at 0x7f5838cf8190>, <rdkit.Chem.rdchem.Mol object at 0x7f5838cf8c80>, <rdkit.Chem.rdchem.Mol object at 0x7f5838cfa2d0>, <rdkit.Chem.rdchem.Mol object at 0x7f5838d04580>, <rdkit.Chem.rdchem.Mol object at 0x7f5838cf8270>]","[0, 0, 0, 0, 6214, 6215, 6216, 6217, 6218, 1, 6219, 6220, 6221, 6222, 6223, 6224, 6225]"
PTB7-Th,IHIC,-5.204782608695651,-3.5391891891891896,-5.45,-3.93,0.667,DCB,CN,25.0,MoOx,ZnO,9.77,9.76,0.754,68.1,"[<rdkit.Chem.rdchem.Mol object at 0x7f5838cf94d0>, <rdkit.Chem.rdchem.Mol object at 0x7f5838cf9a80>, <rdkit.Chem.rdchem.Mol object at 0x7f5838cf9850>, <rdkit.Chem.rdchem.Mol object at 0x7f5838cf99a0>, <rdkit.Chem.rdchem.Mol object at 0x7f5838cf9310>, <rdkit.Chem.rdchem.Mol object at 0x7f5838cf9150>, <rdkit.Chem.rdchem.Mol object at 0x7f5838d043c0>]","[<rdkit.Chem.rdchem.Mol object at 0x7f5838cfa1f0>, <rdkit.Chem.rdchem.Mol object at 0x7f5838d045f0>, <rdkit.Chem.rdchem.Mol object at 0x7f5838cfaab0>, <rdkit.Chem.rdchem.Mol object at 0x7f5838cf8890>, <rdkit.Chem.rdchem.Mol object at 0x7f5838d04430>]","[<rdkit.Chem.rdchem.Mol object at 0x7f5838cf94d0>, <rdkit.Chem.rdchem.Mol object at 0x7f5838cf9a80>, <rdkit.Chem.rdchem.Mol object at 0x7f5838cf9850>, <rdkit.Chem.rdchem.Mol object at 0x7f5838cf99a0>, <rdkit.Chem.rdchem.Mol object at 0x7f5838cf9310>, <rdkit.Chem.rdchem.Mol object at 0x7f5838cf9150>, <rdkit.Chem.rdchem.Mol object at 0x7f5838d043c0>, '.', <rdkit.Chem.rdchem.Mol object at 0x7f5838cfa1f0>, <rdkit.Chem.rdchem.Mol object at 0x7f5838d045f0>, <rdkit.Chem.rdchem.Mol object at 0x7f5838cfaab0>, <rdkit.Chem.rdchem.Mol object at 0x7f5838cf8890>, <rdkit.Chem.rdchem.Mol object at 0x7f5838d04430>]","[0, 0, 0, 0, 6226, 6227, 6228, 6229, 6230, 6231, 6232, 1, 6233, 6234, 6235, 6236, 6237]"
PBDB-T,ITIC,-5.297714285714285,-3.4170000000000003,-5.574146341463415,-3.915,1.0,CB,DIO,25.0,MoOx,ZnO,7.4,7.26,0.88,59.8,"[<rdkit.Chem.rdchem.Mol object at 0x7f5838cfba70>, <rdkit.Chem.rdchem.Mol object at 0x7f5838d050e0>, <rdkit.Chem.rdchem.Mol object at 0x7f5838d04740>, <rdkit.Chem.rdchem.Mol object at 0x7f5838d04f90>, <rdkit.Chem.rdchem.Mol object at 0x7f5838d05620>]","[<rdkit.Chem.rdchem.Mol object at 0x7f5838cf8040>, <rdkit.Chem.rdchem.Mol object at 0x7f5838d04660>, <rdkit.Chem.rdchem.Mol object at 0x7f5838cfb6f0>, <rdkit.Chem.rdchem.Mol object at 0x7f5838d05770>, <rdkit.Chem.rdchem.Mol object at 0x7f5838d04040>]","[<rdkit.Chem.rdchem.Mol object at 0x7f5838cfba70>, <rdkit.Chem.rdchem.Mol object at 0x7f5838d050e0>, <rdkit.Chem.rdchem.Mol object at 0x7f5838d04740>, <rdkit.Chem.rdchem.Mol object at 0x7f5838d04f90>, <rdkit.Chem.rdchem.Mol object at 0x7f5838d05620>, '.', <rdkit.Chem.rdchem.Mol object at 0x7f5838cf8040>, <rdkit.Chem.rdchem.Mol object at 0x7f5838d04660>, <rdkit.Chem.rdchem.Mol object at 0x7f5838cfb6f0>, <rdkit.Chem.rdchem.Mol object at 0x7f5838d05770>, <rdkit.Chem.rdchem.Mol object at 0x7f5838d04040>]","[0, 0, 0, 0, 0, 0, 6238, 6239, 6240, 6241, 6242, 1, 6243, 6244, 6245, 6246, 6247]"
PBDTTT-C-T,IDT-2BM,-5.128,-3.268,-5.586666666666666,-4.083333333333333,1.5,o-DCB,CN,25.0,PEDOT:PSS,Ca,4.26,4.26,0.766,55.1,"[<rdkit.Chem.rdchem.Mol object at 0x7f5838cf9bd0>, <rdkit.Chem.rdchem.Mol object at 0x7f5838cfb4c0>, <rdkit.Chem.rdchem.Mol object at 0x7f5838d04190>, <rdkit.Chem.rdchem.Mol object at 0x7f5838d04c80>, <rdkit.Chem.rdchem.Mol object at 0x7f5838d04eb0>]","[<rdkit.Chem.rdchem.Mol object at 0x7f5838cf9380>, <rdkit.Chem.rdchem.Mol object at 0x7f5838cf8970>, <rdkit.Chem.rdchem.Mol object at 0x7f5838d04cf0>, <rdkit.Chem.rdchem.Mol object at 0x7f5838d04dd0>, <rdkit.Chem.rdchem.Mol object at 0x7f5838d04970>]","[<rdkit.Chem.rdchem.Mol object at 0x7f5838cf9bd0>, <rdkit.Chem.rdchem.Mol object at 0x7f5838cfb4c0>, <rdkit.Chem.rdchem.Mol object at 0x7f5838d04190>, <rdkit.Chem.rdchem.Mol object at 0x7f5838d04c80>, <rdkit.Chem.rdchem.Mol object at 0x7f5838d04eb0>, '.', <rdkit.Chem.rdchem.Mol object at 0x7f5838cf9380>, <rdkit.Chem.rdchem.Mol object at 0x7f5838cf8970>, <rdkit.Chem.rdchem.Mol object at 0x7f5838d04cf0>, <rdkit.Chem.rdchem.Mol object at 0x7f5838d04dd0>, <rdkit.Chem.rdchem.Mol object at 0x7f5838d04970>]","[0, 0, 0, 0, 0, 0, 6248, 6249, 6250, 6251, 6252, 1, 6253, 6254, 6255, 6256, 6257]"
PffQx-PS,ITIC,-5.4,-3.55,-5.574146341463415,-3.915,1.0,CF,DIO,90.0,PEDOT:PSS,PDINO,9.12,9.13,0.97,62.9,"[<rdkit.Chem.rdchem.Mol object at 0x7f5838d067a0>, <rdkit.Chem.rdchem.Mol object at 0x7f5838d06ab0>, <rdkit.Chem.rdchem.Mol object at 0x7f5838d06960>, <rdkit.Chem.rdchem.Mol object at 0x7f5838d06b90>, <rdkit.Chem.rdchem.Mol object at 0x7f5838d06110>, <rdkit.Chem.rdchem.Mol object at 0x7f5838d063b0>, <rdkit.Chem.rdchem.Mol object at 0x7f5838d06ea0>, <rdkit.Chem.rdchem.Mol object at 0x7f5838d057e0>, <rdkit.Chem.rdchem.Mol object at 0x7f5838d05e00>]","[<rdkit.Chem.rdchem.Mol object at 0x7f5838d054d0>, <rdkit.Chem.rdchem.Mol object at 0x7f5838d060a0>, <rdkit.Chem.rdchem.Mol object at 0x7f5838d05ee0>, <rdkit.Chem.rdchem.Mol object at 0x7f5838d06490>, <rdkit.Chem.rdchem.Mol object at 0x7f5838d06180>]","[<rdkit.Chem.rdchem.Mol object at 0x7f5838d067a0>, <rdkit.Chem.rdchem.Mol object at 0x7f5838d06ab0>, <rdkit.Chem.rdchem.Mol object at 0x7f5838d06960>, <rdkit.Chem.rdchem.Mol object at 0x7f5838d06b90>, <rdkit.Chem.rdchem.Mol object at 0x7f5838d06110>, <rdkit.Chem.rdchem.Mol object at 0x7f5838d063b0>, <rdkit.Chem.rdchem.Mol object at 0x7f5838d06ea0>, <rdkit.Chem.rdchem.Mol object at 0x7f5838d057e0>, <rdkit.Chem.rdchem.Mol object at 0x7f5838d05e00>, '.', <rdkit.Chem.rdchem.Mol object at 0x7f5838d054d0>, <rdkit.Chem.rdchem.Mol object at 0x7f5838d060a0>, <rdkit.Chem.rdchem.Mol object at 0x7f5838d05ee0>, <rdkit.Chem.rdchem.Mol object at 0x7f5838d06490>, <rdkit.Chem.rdchem.Mol object at 0x7f5838d06180>]","[0, 0, 6281, 6282, 6283, 6284, 6285, 6286, 6287, 6288, 6289, 1, 6290, 6291, 6292, 6293, 6294]"
PBDB-T,ITIC,-5.297714285714285,-3.4170000000000003,-5.574146341463415,-3.915,1.0,CB,_,160.0,MoOx,ZnO,8.6,8.57,0.831,71.1,"[<rdkit.Chem.rdchem.Mol object at 0x7f5838cf8660>, <rdkit.Chem.rdchem.Mol object at 0x7f5838d059a0>, <rdkit.Chem.rdchem.Mol object at 0x7f5838d04120>, <rdkit.Chem.rdchem.Mol object at 0x7f5838d06ce0>, <rdkit.Chem.rdchem.Mol object at 0x7f5838d04c10>]","[<rdkit.Chem.rdchem.Mol object at 0x7f5838d05310>, <rdkit.Chem.rdchem.Mol object at 0x7f5838d06f10>, <rdkit.Chem.rdchem.Mol object at 0x7f5838d04b30>, <rdkit.Chem.rdchem.Mol object at 0x7f5838d07220>, <rdkit.Chem.rdchem.Mol object at 0x7f5838d051c0>]","[<rdkit.Chem.rdchem.Mol object at 0x7f5838cf8660>, <rdkit.Chem.rdchem.Mol object at 0x7f5838d059a0>, <rdkit.Chem.rdchem.Mol object at 0x7f5838d04120>, <rdkit.Chem.rdchem.Mol object at 0x7f5838d06ce0>, <rdkit.Chem.rdchem.Mol object at 0x7f5838d04c10>, '.', <rdkit.Chem.rdchem.Mol object at 0x7f5838d05310>, <rdkit.Chem.rdchem.Mol object at 0x7f5838d06f10>, <rdkit.Chem.rdchem.Mol object at 0x7f5838d04b30>, <rdkit.Chem.rdchem.Mol object at 0x7f5838d07220>, <rdkit.Chem.rdchem.Mol object at 0x7f5838d051c0>]","[0, 0, 0, 0, 0, 0, 6295, 6296, 6297, 6298, 6299, 1, 6300, 6301, 6302, 6303, 6304]"
PBDB-T,ITIC,-5.297714285714285,-3.4170000000000003,-5.574146341463415,-3.915,1.0,CB,DIO,25.0,MoOx,ZnO,10.53,10.67,0.87,64.15,"[<rdkit.Chem.rdchem.Mol object at 0x7f5838d05f50>, <rdkit.Chem.rdchem.Mol object at 0x7f5838d049e0>, <rdkit.Chem.rdchem.Mol object at 0x7f5838d05e70>, <rdkit.Chem.rdchem.Mol object at 0x7f5838d04270>, <rdkit.Chem.rdchem.Mol object at 0x7f5838d073e0>]","[<rdkit.Chem.rdchem.Mol object at 0x7f5838d07680>, <rdkit.Chem.rdchem.Mol object at 0x7f5838d06810>, <rdkit.Chem.rdchem.Mol object at 0x7f5838d05000>, <rdkit.Chem.rdchem.Mol object at 0x7f5838d052a0>, <rdkit.Chem.rdchem.Mol object at 0x7f5838d05850>]","[<rdkit.Chem.rdchem.Mol object at 0x7f5838d05f50>, <rdkit.Chem.rdchem.Mol object at 0x7f5838d049e0>, <rdkit.Chem.rdchem.Mol object at 0x7f5838d05e70>, <rdkit.Chem.rdchem.Mol object at 0x7f5838d04270>, <rdkit.Chem.rdchem.Mol object at 0x7f5838d073e0>, '.', <rdkit.Chem.rdchem.Mol object at 0x7f5838d07680>, <rdkit.Chem.rdchem.Mol object at 0x7f5838d06810>, <rdkit.Chem.rdchem.Mol object at 0x7f5838d05000>, <rdkit.Chem.rdchem.Mol object at 0x7f5838d052a0>, <rdkit.Chem.rdchem.Mol object at 0x7f5838d05850>]","[0, 0, 0, 0, 0, 0, 6305, 6306, 6307, 6308, 6309, 1, 6310, 6311, 6312, 6313, 6314]"
J101,ITIC,-5.3,-3.5,-5.574146341463415,-3.915,1.0,CF,_,150.0,PEDOT:PSS,PDINO,12.47,12.4,0.951,73.65,"[<rdkit.Chem.rdchem.Mol object at 0x7f5838d062d0>, <rdkit.Chem.rdchem.Mol object at 0x7f5838d07ed0>, <rdkit.Chem.rdchem.Mol object at 0x7f5838d07b50>, <rdkit.Chem.rdchem.Mol object at 0x7f5838d07d80>, <rdkit.Chem.rdchem.Mol object at 0x7f5838d05d20>, <rdkit.Chem.rdchem.Mol object at 0x7f5838d07370>]","[<rdkit.Chem.rdchem.Mol object at 0x7f5838d061f0>, <rdkit.Chem.rdchem.Mol object at 0x7f5838d05b60>, <rdkit.Chem.rdchem.Mol object at 0x7f5838d05930>, <rdkit.Chem.rdchem.Mol object at 0x7f5838d077d0>, <rdkit.Chem.rdchem.Mol object at 0x7f5838d146d0>]","[<rdkit.Chem.rdchem.Mol object at 0x7f5838d062d0>, <rdkit.Chem.rdchem.Mol object at 0x7f5838d07ed0>, <rdkit.Chem.rdchem.Mol object at 0x7f5838d07b50>, <rdkit.Chem.rdchem.Mol object at 0x7f5838d07d80>, <rdkit.Chem.rdchem.Mol object at 0x7f5838d05d20>, <rdkit.Chem.rdchem.Mol object at 0x7f5838d07370>, '.', <rdkit.Chem.rdchem.Mol object at 0x7f5838d061f0>, <rdkit.Chem.rdchem.Mol object at 0x7f5838d05b60>, <rdkit.Chem.rdchem.Mol object at 0x7f5838d05930>, <rdkit.Chem.rdchem.Mol object at 0x7f5838d077d0>, <rdkit.Chem.rdchem.Mol object at 0x7f5838d146d0>]","[0, 0, 0, 0, 0, 6357, 6358, 6359, 6360, 6361, 6362, 1, 6363, 6364, 6365, 6366, 6367]"