Donor,Acceptor,HOMO_D_eV,LUMO_D_eV,HOMO_A_eV,LUMO_A_eV,D_A_ratio_m_m,solvent,solvent_additive,annealing_temperature,hole_contact_layer,electron_contact_layer,PCE_percent,calc_PCE_percent,Voc_V,FF_percent,Donor_BRICS,Acceptor_BRICS,DA_pair_BRICS,DA_tokenized_BRICS
PTB7-Th,ACS8,-5.204782608695651,-3.5391891891891896,-5.54,-4.05,0.5,Toluene,_,25.0,MoOx,PFN,9.9,9.92,0.75,58.8,"[<rdkit.Chem.rdchem.Mol object at 0x7f5838e4d7e0>, <rdkit.Chem.rdchem.Mol object at 0x7f5838e4d930>, <rdkit.Chem.rdchem.Mol object at 0x7f5838e4d8c0>, <rdkit.Chem.rdchem.Mol object at 0x7f5838e4d070>, <rdkit.Chem.rdchem.Mol object at 0x7f5838e4e730>, <rdkit.Chem.rdchem.Mol object at 0x7f5838e4da80>, <rdkit.Chem.rdchem.Mol object at 0x7f5838e4eff0>]","[<rdkit.Chem.rdchem.Mol object at 0x7f5838e4c660>, <rdkit.Chem.rdchem.Mol object at 0x7f5838e4f1b0>, <rdkit.Chem.rdchem.Mol object at 0x7f5838e4dc40>, <rdkit.Chem.rdchem.Mol object at 0x7f5838e4d620>, <rdkit.Chem.rdchem.Mol object at 0x7f5838e4de00>, <rdkit.Chem.rdchem.Mol object at 0x7f5838e4ec00>, <rdkit.Chem.rdchem.Mol object at 0x7f5838e4f0d0>, <rdkit.Chem.rdchem.Mol object at 0x7f5838e4f3e0>]","[<rdkit.Chem.rdchem.Mol object at 0x7f5838e4d7e0>, <rdkit.Chem.rdchem.Mol object at 0x7f5838e4d930>, <rdkit.Chem.rdchem.Mol object at 0x7f5838e4d8c0>, <rdkit.Chem.rdchem.Mol object at 0x7f5838e4d070>, <rdkit.Chem.rdchem.Mol object at 0x7f5838e4e730>, <rdkit.Chem.rdchem.Mol object at 0x7f5838e4da80>, <rdkit.Chem.rdchem.Mol object at 0x7f5838e4eff0>, '.', <rdkit.Chem.rdchem.Mol object at 0x7f5838e4c660>, <rdkit.Chem.rdchem.Mol object at 0x7f5838e4f1b0>, <rdkit.Chem.rdchem.Mol object at 0x7f5838e4dc40>, <rdkit.Chem.rdchem.Mol object at 0x7f5838e4d620>, <rdkit.Chem.rdchem.Mol object at 0x7f5838e4de00>, <rdkit.Chem.rdchem.Mol object at 0x7f5838e4ec00>, <rdkit.Chem.rdchem.Mol object at 0x7f5838e4f0d0>, <rdkit.Chem.rdchem.Mol object at 0x7f5838e4f3e0>]","[0, 4106, 4107, 4108, 4109, 4110, 4111, 4112, 1, 4113, 4114, 4115, 4116, 4117, 4118, 4119, 4120]"
PB24-3TDC,ITIC-Th,-5.36,-3.58,-5.673333333333334,-3.908888888888889,0.667,CB,DIO,25.0,PEDOT:PSS,C60-bissalt,10.3,10.3,0.902,68.0,"[<rdkit.Chem.rdchem.Mol object at 0x7f5838e4e0a0>, <rdkit.Chem.rdchem.Mol object at 0x7f5838e4f140>, <rdkit.Chem.rdchem.Mol object at 0x7f5838e4edc0>, <rdkit.Chem.rdchem.Mol object at 0x7f5838e4ef10>, <rdkit.Chem.rdchem.Mol object at 0x7f5838e4eb90>, <rdkit.Chem.rdchem.Mol object at 0x7f5838e4e1f0>, <rdkit.Chem.rdchem.Mol object at 0x7f5838e4e880>, <rdkit.Chem.rdchem.Mol object at 0x7f5838e4e420>, <rdkit.Chem.rdchem.Mol object at 0x7f5838e4f6f0>]","[<rdkit.Chem.rdchem.Mol object at 0x7f5838e4ef80>, <rdkit.Chem.rdchem.Mol object at 0x7f5838e4de70>, <rdkit.Chem.rdchem.Mol object at 0x7f5838e4f220>, <rdkit.Chem.rdchem.Mol object at 0x7f5838e4e570>, <rdkit.Chem.rdchem.Mol object at 0x7f5838e4f060>]","[<rdkit.Chem.rdchem.Mol object at 0x7f5838e4e0a0>, <rdkit.Chem.rdchem.Mol object at 0x7f5838e4f140>, <rdkit.Chem.rdchem.Mol object at 0x7f5838e4edc0>, <rdkit.Chem.rdchem.Mol object at 0x7f5838e4ef10>, <rdkit.Chem.rdchem.Mol object at 0x7f5838e4eb90>, <rdkit.Chem.rdchem.Mol object at 0x7f5838e4e1f0>, <rdkit.Chem.rdchem.Mol object at 0x7f5838e4e880>, <rdkit.Chem.rdchem.Mol object at 0x7f5838e4e420>, <rdkit.Chem.rdchem.Mol object at 0x7f5838e4f6f0>, '.', <rdkit.Chem.rdchem.Mol object at 0x7f5838e4ef80>, <rdkit.Chem.rdchem.Mol object at 0x7f5838e4de70>, <rdkit.Chem.rdchem.Mol object at 0x7f5838e4f220>, <rdkit.Chem.rdchem.Mol object at 0x7f5838e4e570>, <rdkit.Chem.rdchem.Mol object at 0x7f5838e4f060>]","[0, 0, 4121, 4122, 4123, 4124, 4125, 4126, 4127, 4128, 4129, 1, 4130, 4131, 4132, 4133, 4134]"
PBDB-T,IDNO-IDT,-5.297714285714285,-3.4170000000000003,-5.45,-3.65,1.0,CB,_,140.0,PEDOT:PSS,Ca,1.1,0.94,1.03,34.47,"[<rdkit.Chem.rdchem.Mol object at 0x7f5838e4fca0>, <rdkit.Chem.rdchem.Mol object at 0x7f5838e4d150>, <rdkit.Chem.rdchem.Mol object at 0x7f5838e4f840>, <rdkit.Chem.rdchem.Mol object at 0x7f5838e4fe60>, <rdkit.Chem.rdchem.Mol object at 0x7f5838c5c820>]","[<rdkit.Chem.rdchem.Mol object at 0x7f5838e4fa00>, <rdkit.Chem.rdchem.Mol object at 0x7f5838e4e2d0>, <rdkit.Chem.rdchem.Mol object at 0x7f5838e4fbc0>]","[<rdkit.Chem.rdchem.Mol object at 0x7f5838e4fca0>, <rdkit.Chem.rdchem.Mol object at 0x7f5838e4d150>, <rdkit.Chem.rdchem.Mol object at 0x7f5838e4f840>, <rdkit.Chem.rdchem.Mol object at 0x7f5838e4fe60>, <rdkit.Chem.rdchem.Mol object at 0x7f5838c5c820>, '.', <rdkit.Chem.rdchem.Mol object at 0x7f5838e4fa00>, <rdkit.Chem.rdchem.Mol object at 0x7f5838e4e2d0>, <rdkit.Chem.rdchem.Mol object at 0x7f5838e4fbc0>]","[0, 0, 0, 0, 0, 0, 0, 0, 4149, 4150, 4151, 4152, 4153, 1, 4154, 4155, 4156]"
PBDB-T,IM1-IDT,-5.297714285714285,-3.4170000000000003,-5.46,-4.02,0.667,CB,_,140.0,PEDOT:PSS,Ca,1.62,1.32,0.55,47.41,"[<rdkit.Chem.rdchem.Mol object at 0x7f5838e4f7d0>, <rdkit.Chem.rdchem.Mol object at 0x7f5838e4f8b0>, <rdkit.Chem.rdchem.Mol object at 0x7f5838e4fed0>, <rdkit.Chem.rdchem.Mol object at 0x7f5838c5cba0>, <rdkit.Chem.rdchem.Mol object at 0x7f5838c5c6d0>]","[<rdkit.Chem.rdchem.Mol object at 0x7f5838e4ff40>, <rdkit.Chem.rdchem.Mol object at 0x7f5838e4fdf0>, <rdkit.Chem.rdchem.Mol object at 0x7f5838e4f680>, <rdkit.Chem.rdchem.Mol object at 0x7f5838e4f610>]","[<rdkit.Chem.rdchem.Mol object at 0x7f5838e4f7d0>, <rdkit.Chem.rdchem.Mol object at 0x7f5838e4f8b0>, <rdkit.Chem.rdchem.Mol object at 0x7f5838e4fed0>, <rdkit.Chem.rdchem.Mol object at 0x7f5838c5cba0>, <rdkit.Chem.rdchem.Mol object at 0x7f5838c5c6d0>, '.', <rdkit.Chem.rdchem.Mol object at 0x7f5838e4ff40>, <rdkit.Chem.rdchem.Mol object at 0x7f5838e4fdf0>, <rdkit.Chem.rdchem.Mol object at 0x7f5838e4f680>, <rdkit.Chem.rdchem.Mol object at 0x7f5838e4f610>]","[0, 0, 0, 0, 0, 0, 0, 4157, 4158, 4159, 4160, 4161, 1, 4162, 4163, 4164, 4165]"
PBDB-T,ITAN-IDT,-5.297714285714285,-3.4170000000000003,-5.42,-3.69,1.5,CB,_,140.0,PEDOT:PSS,Ca,2.0,1.72,1.18,39.19,"[<rdkit.Chem.rdchem.Mol object at 0x7f5838e4f990>, <rdkit.Chem.rdchem.Mol object at 0x7f5838c5cc10>, <rdkit.Chem.rdchem.Mol object at 0x7f5838c5c660>, <rdkit.Chem.rdchem.Mol object at 0x7f5838c5c190>, <rdkit.Chem.rdchem.Mol object at 0x7f5838c5c270>]","[<rdkit.Chem.rdchem.Mol object at 0x7f5838e4f450>, <rdkit.Chem.rdchem.Mol object at 0x7f5838e4d4d0>, <rdkit.Chem.rdchem.Mol object at 0x7f5838e4e5e0>, <rdkit.Chem.rdchem.Mol object at 0x7f5838e4fd80>, <rdkit.Chem.rdchem.Mol object at 0x7f5838e4fc30>]","[<rdkit.Chem.rdchem.Mol object at 0x7f5838e4f990>, <rdkit.Chem.rdchem.Mol object at 0x7f5838c5cc10>, <rdkit.Chem.rdchem.Mol object at 0x7f5838c5c660>, <rdkit.Chem.rdchem.Mol object at 0x7f5838c5c190>, <rdkit.Chem.rdchem.Mol object at 0x7f5838c5c270>, '.', <rdkit.Chem.rdchem.Mol object at 0x7f5838e4f450>, <rdkit.Chem.rdchem.Mol object at 0x7f5838e4d4d0>, <rdkit.Chem.rdchem.Mol object at 0x7f5838e4e5e0>, <rdkit.Chem.rdchem.Mol object at 0x7f5838e4fd80>, <rdkit.Chem.rdchem.Mol object at 0x7f5838e4fc30>]","[0, 0, 0, 0, 0, 0, 4166, 4167, 4168, 4169, 4170, 1, 4171, 4172, 4173, 4174, 4175]"
PBDT-3TCO,IT-4F,-5.5,-3.24,-5.66875,-4.060416666666667,1.0,CB,DIO,25.0,PEDOT:PSS,PFN-Br,11.52,11.56,0.88,62.7,"[<rdkit.Chem.rdchem.Mol object at 0x7f5838e4f290>, <rdkit.Chem.rdchem.Mol object at 0x7f5838e4e960>, <rdkit.Chem.rdchem.Mol object at 0x7f5838c5cd60>, <rdkit.Chem.rdchem.Mol object at 0x7f5838e4fae0>, <rdkit.Chem.rdchem.Mol object at 0x7f5838c5d0e0>, <rdkit.Chem.rdchem.Mol object at 0x7f5838c5cb30>, <rdkit.Chem.rdchem.Mol object at 0x7f5838c5c9e0>]","[<rdkit.Chem.rdchem.Mol object at 0x7f5838e4f5a0>, <rdkit.Chem.rdchem.Mol object at 0x7f5838c5c3c0>, <rdkit.Chem.rdchem.Mol object at 0x7f5838e4fb50>, <rdkit.Chem.rdchem.Mol object at 0x7f5838c5d540>, <rdkit.Chem.rdchem.Mol object at 0x7f5838c5c430>]","[<rdkit.Chem.rdchem.Mol object at 0x7f5838e4f290>, <rdkit.Chem.rdchem.Mol object at 0x7f5838e4e960>, <rdkit.Chem.rdchem.Mol object at 0x7f5838c5cd60>, <rdkit.Chem.rdchem.Mol object at 0x7f5838e4fae0>, <rdkit.Chem.rdchem.Mol object at 0x7f5838c5d0e0>, <rdkit.Chem.rdchem.Mol object at 0x7f5838c5cb30>, <rdkit.Chem.rdchem.Mol object at 0x7f5838c5c9e0>, '.', <rdkit.Chem.rdchem.Mol object at 0x7f5838e4f5a0>, <rdkit.Chem.rdchem.Mol object at 0x7f5838c5c3c0>, <rdkit.Chem.rdchem.Mol object at 0x7f5838e4fb50>, <rdkit.Chem.rdchem.Mol object at 0x7f5838c5d540>, <rdkit.Chem.rdchem.Mol object at 0x7f5838c5c430>]","[0, 0, 0, 0, 4176, 4177, 4178, 4179, 4180, 4181, 4182, 1, 4183, 4184, 4185, 4186, 4187]"
PBDT-3T,IT-4F,-5.48,-3.21,-5.66875,-4.060416666666667,0.667,CB,DIO,25.0,PEDOT:PSS,PFN-Br,1.0,1.01,0.85,30.43,"[<rdkit.Chem.rdchem.Mol object at 0x7f5838e4ee30>, <rdkit.Chem.rdchem.Mol object at 0x7f5838e4ea40>, <rdkit.Chem.rdchem.Mol object at 0x7f5838c5d460>, <rdkit.Chem.rdchem.Mol object at 0x7f5838c5d230>, <rdkit.Chem.rdchem.Mol object at 0x7f5838c5cf90>, <rdkit.Chem.rdchem.Mol object at 0x7f5838c5d770>]","[<rdkit.Chem.rdchem.Mol object at 0x7f5838c5da10>, <rdkit.Chem.rdchem.Mol object at 0x7f5838c5d310>, <rdkit.Chem.rdchem.Mol object at 0x7f5838c5d380>, <rdkit.Chem.rdchem.Mol object at 0x7f5838c5c5f0>, <rdkit.Chem.rdchem.Mol object at 0x7f5838c5ce40>]","[<rdkit.Chem.rdchem.Mol object at 0x7f5838e4ee30>, <rdkit.Chem.rdchem.Mol object at 0x7f5838e4ea40>, <rdkit.Chem.rdchem.Mol object at 0x7f5838c5d460>, <rdkit.Chem.rdchem.Mol object at 0x7f5838c5d230>, <rdkit.Chem.rdchem.Mol object at 0x7f5838c5cf90>, <rdkit.Chem.rdchem.Mol object at 0x7f5838c5d770>, '.', <rdkit.Chem.rdchem.Mol object at 0x7f5838c5da10>, <rdkit.Chem.rdchem.Mol object at 0x7f5838c5d310>, <rdkit.Chem.rdchem.Mol object at 0x7f5838c5d380>, <rdkit.Chem.rdchem.Mol object at 0x7f5838c5c5f0>, <rdkit.Chem.rdchem.Mol object at 0x7f5838c5ce40>]","[0, 0, 0, 0, 0, 4188, 4189, 4190, 4191, 4192, 4193, 1, 4194, 4195, 4196, 4197, 4198]"
PTB7-Th,NFDTS,-5.204782608695651,-3.5391891891891896,-5.36,-3.92,0.833,CF,_,25.0,PEDOT:PSS,PFN-Br,6.15,6.15,0.67,48.9,"[<rdkit.Chem.rdchem.Mol object at 0x7f5838e4e180>, <rdkit.Chem.rdchem.Mol object at 0x7f5838c5d2a0>, <rdkit.Chem.rdchem.Mol object at 0x7f5838c5d1c0>, <rdkit.Chem.rdchem.Mol object at 0x7f5838c5d000>, <rdkit.Chem.rdchem.Mol object at 0x7f5838c5c4a0>, <rdkit.Chem.rdchem.Mol object at 0x7f5838c5c900>, <rdkit.Chem.rdchem.Mol object at 0x7f5838c5db60>]","[<rdkit.Chem.rdchem.Mol object at 0x7f5838c5daf0>, <rdkit.Chem.rdchem.Mol object at 0x7f5838c5cc80>, <rdkit.Chem.rdchem.Mol object at 0x7f5838c5c890>, <rdkit.Chem.rdchem.Mol object at 0x7f5838c5d4d0>]","[<rdkit.Chem.rdchem.Mol object at 0x7f5838e4e180>, <rdkit.Chem.rdchem.Mol object at 0x7f5838c5d2a0>, <rdkit.Chem.rdchem.Mol object at 0x7f5838c5d1c0>, <rdkit.Chem.rdchem.Mol object at 0x7f5838c5d000>, <rdkit.Chem.rdchem.Mol object at 0x7f5838c5c4a0>, <rdkit.Chem.rdchem.Mol object at 0x7f5838c5c900>, <rdkit.Chem.rdchem.Mol object at 0x7f5838c5db60>, '.', <rdkit.Chem.rdchem.Mol object at 0x7f5838c5daf0>, <rdkit.Chem.rdchem.Mol object at 0x7f5838c5cc80>, <rdkit.Chem.rdchem.Mol object at 0x7f5838c5c890>, <rdkit.Chem.rdchem.Mol object at 0x7f5838c5d4d0>]","[0, 0, 0, 0, 0, 4199, 4200, 4201, 4202, 4203, 4204, 4205, 1, 4206, 4207, 4208, 4209]"
PTB7-Th,NFDTSB,-5.204782608695651,-3.5391891891891896,-5.56,-3.85,1.0,CF,_,25.0,PEDOT:PSS,PFN-Br,9.6,9.61,0.75,63.6,"[<rdkit.Chem.rdchem.Mol object at 0x7f5838c5c580>, <rdkit.Chem.rdchem.Mol object at 0x7f5838c5c510>, <rdkit.Chem.rdchem.Mol object at 0x7f5838c5c350>, <rdkit.Chem.rdchem.Mol object at 0x7f5838c5d690>, <rdkit.Chem.rdchem.Mol object at 0x7f5838c5ccf0>, <rdkit.Chem.rdchem.Mol object at 0x7f5838c5c200>, <rdkit.Chem.rdchem.Mol object at 0x7f5838c5da80>]","[<rdkit.Chem.rdchem.Mol object at 0x7f5838c5ca50>, <rdkit.Chem.rdchem.Mol object at 0x7f5838c5d070>, <rdkit.Chem.rdchem.Mol object at 0x7f5838c5cdd0>, <rdkit.Chem.rdchem.Mol object at 0x7f5838c5ceb0>, <rdkit.Chem.rdchem.Mol object at 0x7f5838c5dbd0>, <rdkit.Chem.rdchem.Mol object at 0x7f5838c5d5b0>]","[<rdkit.Chem.rdchem.Mol object at 0x7f5838c5c580>, <rdkit.Chem.rdchem.Mol object at 0x7f5838c5c510>, <rdkit.Chem.rdchem.Mol object at 0x7f5838c5c350>, <rdkit.Chem.rdchem.Mol object at 0x7f5838c5d690>, <rdkit.Chem.rdchem.Mol object at 0x7f5838c5ccf0>, <rdkit.Chem.rdchem.Mol object at 0x7f5838c5c200>, <rdkit.Chem.rdchem.Mol object at 0x7f5838c5da80>, '.', <rdkit.Chem.rdchem.Mol object at 0x7f5838c5ca50>, <rdkit.Chem.rdchem.Mol object at 0x7f5838c5d070>, <rdkit.Chem.rdchem.Mol object at 0x7f5838c5cdd0>, <rdkit.Chem.rdchem.Mol object at 0x7f5838c5ceb0>, <rdkit.Chem.rdchem.Mol object at 0x7f5838c5dbd0>, <rdkit.Chem.rdchem.Mol object at 0x7f5838c5d5b0>]","[0, 0, 0, 4210, 4211, 4212, 4213, 4214, 4215, 4216, 1, 4217, 4218, 4219, 4220, 4221, 4222]"
PBTIBDTT,ITIC-F,-5.47,-3.6,-5.619999999999999,-4.02,1.0,CB,_,25.0,PEDOT:PSS,ZnO,11.19,11.19,0.921,74.1,"[<rdkit.Chem.rdchem.Mol object at 0x7f5838e4f300>, <rdkit.Chem.rdchem.Mol object at 0x7f5838c5d930>, <rdkit.Chem.rdchem.Mol object at 0x7f5838c5d850>, <rdkit.Chem.rdchem.Mol object at 0x7f5838c5e490>, <rdkit.Chem.rdchem.Mol object at 0x7f5838c5e570>, <rdkit.Chem.rdchem.Mol object at 0x7f5838c5e8f0>, <rdkit.Chem.rdchem.Mol object at 0x7f5838c5ec00>, <rdkit.Chem.rdchem.Mol object at 0x7f5838c5ece0>]","[<rdkit.Chem.rdchem.Mol object at 0x7f5838c5f300>, <rdkit.Chem.rdchem.Mol object at 0x7f5838c5e730>, <rdkit.Chem.rdchem.Mol object at 0x7f5838c5eb20>, <rdkit.Chem.rdchem.Mol object at 0x7f5838c5ec70>, <rdkit.Chem.rdchem.Mol object at 0x7f5838c5dfc0>]","[<rdkit.Chem.rdchem.Mol object at 0x7f5838e4f300>, <rdkit.Chem.rdchem.Mol object at 0x7f5838c5d930>, <rdkit.Chem.rdchem.Mol object at 0x7f5838c5d850>, <rdkit.Chem.rdchem.Mol object at 0x7f5838c5e490>, <rdkit.Chem.rdchem.Mol object at 0x7f5838c5e570>, <rdkit.Chem.rdchem.Mol object at 0x7f5838c5e8f0>, <rdkit.Chem.rdchem.Mol object at 0x7f5838c5ec00>, <rdkit.Chem.rdchem.Mol object at 0x7f5838c5ece0>, '.', <rdkit.Chem.rdchem.Mol object at 0x7f5838c5f300>, <rdkit.Chem.rdchem.Mol object at 0x7f5838c5e730>, <rdkit.Chem.rdchem.Mol object at 0x7f5838c5eb20>, <rdkit.Chem.rdchem.Mol object at 0x7f5838c5ec70>, <rdkit.Chem.rdchem.Mol object at 0x7f5838c5dfc0>]","[0, 0, 0, 4223, 4224, 4225, 4226, 4227, 4228, 4229, 4230, 1, 4231, 4232, 4233, 4234, 4235]"
PBDB-T,DTNIF,-5.297714285714285,-3.4170000000000003,-5.82,-3.92,1.0,CB,_,25.0,MoOx,ZnO,8.73,8.68,0.9,72.77,"[<rdkit.Chem.rdchem.Mol object at 0x7f5838e4ed50>, <rdkit.Chem.rdchem.Mol object at 0x7f5838c5f0d0>, <rdkit.Chem.rdchem.Mol object at 0x7f5838c5edc0>, <rdkit.Chem.rdchem.Mol object at 0x7f5838c5e1f0>, <rdkit.Chem.rdchem.Mol object at 0x7f5838c5ef80>]","[<rdkit.Chem.rdchem.Mol object at 0x7f5838c5f530>, <rdkit.Chem.rdchem.Mol object at 0x7f5838c5e030>, <rdkit.Chem.rdchem.Mol object at 0x7f5838c5ed50>, <rdkit.Chem.rdchem.Mol object at 0x7f5838c5c120>]","[<rdkit.Chem.rdchem.Mol object at 0x7f5838e4ed50>, <rdkit.Chem.rdchem.Mol object at 0x7f5838c5f0d0>, <rdkit.Chem.rdchem.Mol object at 0x7f5838c5edc0>, <rdkit.Chem.rdchem.Mol object at 0x7f5838c5e1f0>, <rdkit.Chem.rdchem.Mol object at 0x7f5838c5ef80>, '.', <rdkit.Chem.rdchem.Mol object at 0x7f5838c5f530>, <rdkit.Chem.rdchem.Mol object at 0x7f5838c5e030>, <rdkit.Chem.rdchem.Mol object at 0x7f5838c5ed50>, <rdkit.Chem.rdchem.Mol object at 0x7f5838c5c120>]","[0, 0, 0, 0, 0, 0, 0, 4236, 4237, 4238, 4239, 4240, 1, 4241, 4242, 4243, 4244]"
PBDB-T,DTNSF,-5.297714285714285,-3.4170000000000003,-5.52,-4.0,1.0,CB,_,25.0,MoOx,ZnO,7.15,7.28,0.92,54.62,"[<rdkit.Chem.rdchem.Mol object at 0x7f5838c5cac0>, <rdkit.Chem.rdchem.Mol object at 0x7f5838c5e0a0>, <rdkit.Chem.rdchem.Mol object at 0x7f5838c5e180>, <rdkit.Chem.rdchem.Mol object at 0x7f5838c5eb90>, <rdkit.Chem.rdchem.Mol object at 0x7f5838c5de70>]","[<rdkit.Chem.rdchem.Mol object at 0x7f5838c5f760>, <rdkit.Chem.rdchem.Mol object at 0x7f5838c5f220>, <rdkit.Chem.rdchem.Mol object at 0x7f5838c5ee30>, <rdkit.Chem.rdchem.Mol object at 0x7f5838c5e2d0>, <rdkit.Chem.rdchem.Mol object at 0x7f5838c5d3f0>]","[<rdkit.Chem.rdchem.Mol object at 0x7f5838c5cac0>, <rdkit.Chem.rdchem.Mol object at 0x7f5838c5e0a0>, <rdkit.Chem.rdchem.Mol object at 0x7f5838c5e180>, <rdkit.Chem.rdchem.Mol object at 0x7f5838c5eb90>, <rdkit.Chem.rdchem.Mol object at 0x7f5838c5de70>, '.', <rdkit.Chem.rdchem.Mol object at 0x7f5838c5f760>, <rdkit.Chem.rdchem.Mol object at 0x7f5838c5f220>, <rdkit.Chem.rdchem.Mol object at 0x7f5838c5ee30>, <rdkit.Chem.rdchem.Mol object at 0x7f5838c5e2d0>, <rdkit.Chem.rdchem.Mol object at 0x7f5838c5d3f0>]","[0, 0, 0, 0, 0, 0, 4245, 4246, 4247, 4248, 4249, 1, 4250, 4251, 4252, 4253, 4254]"
PDCBT-2F,IT-4F,-5.6,-3.67,-5.66875,-4.060416666666667,1.0,CF,DIO,25.0,MoOx,ZnO,11.6,11.3,0.92,69.0,"[<rdkit.Chem.rdchem.Mol object at 0x7f5838c5fc30>, <rdkit.Chem.rdchem.Mol object at 0x7f5838c5fa00>, <rdkit.Chem.rdchem.Mol object at 0x7f5838c5fdf0>, <rdkit.Chem.rdchem.Mol object at 0x7f5838c5f140>, <rdkit.Chem.rdchem.Mol object at 0x7f5838c5fb50>]","[<rdkit.Chem.rdchem.Mol object at 0x7f5838c5fed0>, <rdkit.Chem.rdchem.Mol object at 0x7f5838c5e960>, <rdkit.Chem.rdchem.Mol object at 0x7f5838c5fd80>, <rdkit.Chem.rdchem.Mol object at 0x7f5838c5f370>, <rdkit.Chem.rdchem.Mol object at 0x7f5838c5e880>]","[<rdkit.Chem.rdchem.Mol object at 0x7f5838c5fc30>, <rdkit.Chem.rdchem.Mol object at 0x7f5838c5fa00>, <rdkit.Chem.rdchem.Mol object at 0x7f5838c5fdf0>, <rdkit.Chem.rdchem.Mol object at 0x7f5838c5f140>, <rdkit.Chem.rdchem.Mol object at 0x7f5838c5fb50>, '.', <rdkit.Chem.rdchem.Mol object at 0x7f5838c5fed0>, <rdkit.Chem.rdchem.Mol object at 0x7f5838c5e960>, <rdkit.Chem.rdchem.Mol object at 0x7f5838c5fd80>, <rdkit.Chem.rdchem.Mol object at 0x7f5838c5f370>, <rdkit.Chem.rdchem.Mol object at 0x7f5838c5e880>]","[0, 0, 0, 0, 0, 0, 4267, 4268, 4269, 4270, 4271, 1, 4272, 4273, 4274, 4275, 4276]"
PTZPF,BT-IC,-5.41,-3.42,-5.3775,-3.8575,1.0,CB,CN,120.0,PEDOT:PSS,PFN-Br,5.63,5.59,0.93,49.0,"[<rdkit.Chem.rdchem.Mol object at 0x7f5838c5e3b0>, <rdkit.Chem.rdchem.Mol object at 0x7f5838c5f7d0>, <rdkit.Chem.rdchem.Mol object at 0x7f5838c69620>, <rdkit.Chem.rdchem.Mol object at 0x7f5838c5eab0>, <rdkit.Chem.rdchem.Mol object at 0x7f5838c69460>, <rdkit.Chem.rdchem.Mol object at 0x7f5838c69bd0>, <rdkit.Chem.rdchem.Mol object at 0x7f5838c6a180>]","[<rdkit.Chem.rdchem.Mol object at 0x7f5838c5e7a0>, <rdkit.Chem.rdchem.Mol object at 0x7f5838c69310>, <rdkit.Chem.rdchem.Mol object at 0x7f5838c691c0>, <rdkit.Chem.rdchem.Mol object at 0x7f5838c5f840>, <rdkit.Chem.rdchem.Mol object at 0x7f5838c69d20>, <rdkit.Chem.rdchem.Mol object at 0x7f5838c6a340>, <rdkit.Chem.rdchem.Mol object at 0x7f5838c693f0>]","[<rdkit.Chem.rdchem.Mol object at 0x7f5838c5e3b0>, <rdkit.Chem.rdchem.Mol object at 0x7f5838c5f7d0>, <rdkit.Chem.rdchem.Mol object at 0x7f5838c69620>, <rdkit.Chem.rdchem.Mol object at 0x7f5838c5eab0>, <rdkit.Chem.rdchem.Mol object at 0x7f5838c69460>, <rdkit.Chem.rdchem.Mol object at 0x7f5838c69bd0>, <rdkit.Chem.rdchem.Mol object at 0x7f5838c6a180>, '.', <rdkit.Chem.rdchem.Mol object at 0x7f5838c5e7a0>, <rdkit.Chem.rdchem.Mol object at 0x7f5838c69310>, <rdkit.Chem.rdchem.Mol object at 0x7f5838c691c0>, <rdkit.Chem.rdchem.Mol object at 0x7f5838c5f840>, <rdkit.Chem.rdchem.Mol object at 0x7f5838c69d20>, <rdkit.Chem.rdchem.Mol object at 0x7f5838c6a340>, <rdkit.Chem.rdchem.Mol object at 0x7f5838c693f0>]","[0, 0, 4329, 4330, 4331, 4332, 4333, 4334, 4335, 1, 4336, 4337, 4338, 4339, 4340, 4341, 4342]"