Donor,Acceptor,HOMO_D_eV,LUMO_D_eV,HOMO_A_eV,LUMO_A_eV,D_A_ratio_m_m,solvent,solvent_additive,annealing_temperature,PCE_percent,calc_PCE_percent,Voc_V,FF_percent,Donor_BRICS,Acceptor_BRICS,DA_pair_BRICS,DA_tokenized_BRICS
J61,ITIC,-5.303333333333334,-3.151666666666667,-5.574146341463415,-3.915,1.0,CF,_,100,9.53,9.54,0.89,61.48,"['CCCCCCCCCCCC', 'CCCCCCCCC(C)CCCCCC', 'SS', 'c1ccsc1', 'Cc1cccs1', 'Fc1cc2nnnc2cc1F', 'Cc1cc2cc3sccc3cc2s1']","['N#CCC#N', 'O=C1CCc2ccccc21', 'C', 'CCCCCC', 'c1ccc(C2(c3ccccc3)c3cc4c(cc3-c3sc5ccsc5c32)C(c2ccccc2)(c2ccccc2)c2c-4sc3ccsc23)cc1']","['CCCCCCCCCCCC', 'CCCCCCCCC(C)CCCCCC', 'SS', 'c1ccsc1', 'Cc1cccs1', 'Fc1cc2nnnc2cc1F', 'Cc1cc2cc3sccc3cc2s1', '.', 'N#CCC#N', 'O=C1CCc2ccccc21', 'C', 'CCCCCC', 'c1ccc(C2(c3ccccc3)c3cc4c(cc3-c3sc5ccsc5c32)C(c2ccccc2)(c2ccccc2)c2c-4sc3ccsc23)cc1']","[0, 0, 0, 0, 25, 16, 26, 6, 5, 18, 8, 1, 9, 10, 11, 12, 14]"
J61,ITIC,-5.303333333333334,-3.151666666666667,-5.574146341463415,-3.915,1.0,CF,_,130,10.57,10.57,0.898,65.49,"['CCCCCCCCCCCC', 'CCCCCCCCC(C)CCCCCC', 'SS', 'c1ccsc1', 'Cc1cccs1', 'Fc1cc2nnnc2cc1F', 'Cc1cc2cc3sccc3cc2s1']","['N#CCC#N', 'O=C1CCc2ccccc21', 'C', 'CCCCCC', 'c1ccc(C2(c3ccccc3)c3cc4c(cc3-c3sc5ccsc5c32)C(c2ccccc2)(c2ccccc2)c2c-4sc3ccsc23)cc1']","['CCCCCCCCCCCC', 'CCCCCCCCC(C)CCCCCC', 'SS', 'c1ccsc1', 'Cc1cccs1', 'Fc1cc2nnnc2cc1F', 'Cc1cc2cc3sccc3cc2s1', '.', 'N#CCC#N', 'O=C1CCc2ccccc21', 'C', 'CCCCCC', 'c1ccc(C2(c3ccccc3)c3cc4c(cc3-c3sc5ccsc5c32)C(c2ccccc2)(c2ccccc2)c2c-4sc3ccsc23)cc1']","[0, 0, 0, 0, 25, 16, 26, 6, 5, 18, 8, 1, 9, 10, 11, 12, 14]"
J61,m-ITIC,-5.303333333333334,-3.151666666666667,-5.526666666666667,-3.8515384615384622,1.0,CF,_,130,11.77,11.78,0.912,70.55,"['CCCCCCCCCCCC', 'CCCCCCCCC(C)CCCCCC', 'SS', 'c1ccsc1', 'Cc1cccs1', 'Fc1cc2nnnc2cc1F', 'Cc1cc2cc3sccc3cc2s1']","['N#CCC#N', 'O=C1CCc2ccccc21', 'C', 'CCCCCC', 'c1ccc(C2(c3ccccc3)c3cc4c(cc3-c3sc5ccsc5c32)C(c2ccccc2)(c2ccccc2)c2c-4sc3ccsc23)cc1']","['CCCCCCCCCCCC', 'CCCCCCCCC(C)CCCCCC', 'SS', 'c1ccsc1', 'Cc1cccs1', 'Fc1cc2nnnc2cc1F', 'Cc1cc2cc3sccc3cc2s1', '.', 'N#CCC#N', 'O=C1CCc2ccccc21', 'C', 'CCCCCC', 'c1ccc(C2(c3ccccc3)c3cc4c(cc3-c3sc5ccsc5c32)C(c2ccccc2)(c2ccccc2)c2c-4sc3ccsc23)cc1']","[0, 0, 0, 0, 25, 16, 26, 6, 5, 18, 8, 1, 9, 10, 11, 12, 14]"
J62,ITIC,-5.31,-3.08,-5.574146341463415,-3.915,1.5,CF,_,25,9.09,9.09,0.904,62.36,"['CCCCCCCC', 'CCCCCCCCC(C)CCCCCC', 'S', 'c1ccsc1', 'Cc1cccs1', 'Fc1cc2nnnc2cc1F', 'Cc1cc2cc3sccc3cc2s1']","['N#CCC#N', 'O=C1CCc2ccccc21', 'C', 'CCCCCC', 'c1ccc(C2(c3ccccc3)c3cc4c(cc3-c3sc5ccsc5c32)C(c2ccccc2)(c2ccccc2)c2c-4sc3ccsc23)cc1']","['CCCCCCCC', 'CCCCCCCCC(C)CCCCCC', 'S', 'c1ccsc1', 'Cc1cccs1', 'Fc1cc2nnnc2cc1F', 'Cc1cc2cc3sccc3cc2s1', '.', 'N#CCC#N', 'O=C1CCc2ccccc21', 'C', 'CCCCCC', 'c1ccc(C2(c3ccccc3)c3cc4c(cc3-c3sc5ccsc5c32)C(c2ccccc2)(c2ccccc2)c2c-4sc3ccsc23)cc1']","[0, 0, 0, 0, 20, 16, 24, 6, 5, 18, 8, 1, 9, 10, 11, 12, 14]"
J63,ITIC,-5.28,-3.04,-5.574146341463415,-3.915,1.5,CF,_,25,7.38,7.36,0.882,53.11,"['C=CCCCC', 'CCCCCCCCC(C)CCCCCC', 'SS', 'c1ccsc1', 'Cc1cccs1', 'Fc1cc2nnnc2cc1F', 'Cc1cc2cc3sccc3cc2s1']","['N#CCC#N', 'O=C1CCc2ccccc21', 'C', 'CCCCCC', 'c1ccc(C2(c3ccccc3)c3cc4c(cc3-c3sc5ccsc5c32)C(c2ccccc2)(c2ccccc2)c2c-4sc3ccsc23)cc1']","['C=CCCCC', 'CCCCCCCCC(C)CCCCCC', 'SS', 'c1ccsc1', 'Cc1cccs1', 'Fc1cc2nnnc2cc1F', 'Cc1cc2cc3sccc3cc2s1', '.', 'N#CCC#N', 'O=C1CCc2ccccc21', 'C', 'CCCCCC', 'c1ccc(C2(c3ccccc3)c3cc4c(cc3-c3sc5ccsc5c32)C(c2ccccc2)(c2ccccc2)c2c-4sc3ccsc23)cc1']","[0, 0, 0, 0, 46, 16, 26, 6, 5, 18, 8, 1, 9, 10, 11, 12, 14]"
J64,ITIC,-5.33,-3.09,-5.574146341463415,-3.915,1.5,CF,_,25,7.51,7.51,0.908,54.32,"['C', 'C1CCCCC1', 'CCCCCCCCC(C)CCCCCC', 'SS', 'c1ccsc1', 'Cc1cccs1', 'Fc1cc2nnnc2cc1F', 'Cc1cc2cc3sccc3cc2s1']","['N#CCC#N', 'O=C1CCc2ccccc21', 'C', 'CCCCCC', 'c1ccc(C2(c3ccccc3)c3cc4c(cc3-c3sc5ccsc5c32)C(c2ccccc2)(c2ccccc2)c2c-4sc3ccsc23)cc1']","['C', 'C1CCCCC1', 'CCCCCCCCC(C)CCCCCC', 'SS', 'c1ccsc1', 'Cc1cccs1', 'Fc1cc2nnnc2cc1F', 'Cc1cc2cc3sccc3cc2s1', '.', 'N#CCC#N', 'O=C1CCc2ccccc21', 'C', 'CCCCCC', 'c1ccc(C2(c3ccccc3)c3cc4c(cc3-c3sc5ccsc5c32)C(c2ccccc2)(c2ccccc2)c2c-4sc3ccsc23)cc1']","[0, 0, 0, 11, 47, 16, 26, 6, 5, 18, 8, 1, 9, 10, 11, 12, 14]"
J81,m-ITIC,-5.43,-2.98,-5.526666666666667,-3.8515384615384622,1.0,CF,_,160,10.6,10.6,0.95,73.08,"['CCCCCCCCC(C)CCCCCC', 'Cc1cccs1', 'CCC[Si](CCC)(CCC)c1cccs1', 'c1ccsc1', 'Fc1cc2nnnc2cc1F', 'Cc1cc2cc3occc3cc2o1']","['N#CCC#N', 'O=C1CCc2ccccc21', 'C', 'CCCCCC', 'c1ccc(C2(c3ccccc3)c3cc4c(cc3-c3sc5ccsc5c32)C(c2ccccc2)(c2ccccc2)c2c-4sc3ccsc23)cc1']","['CCCCCCCCC(C)CCCCCC', 'Cc1cccs1', 'CCC[Si](CCC)(CCC)c1cccs1', 'c1ccsc1', 'Fc1cc2nnnc2cc1F', 'Cc1cc2cc3occc3cc2o1', '.', 'N#CCC#N', 'O=C1CCc2ccccc21', 'C', 'CCCCCC', 'c1ccc(C2(c3ccccc3)c3cc4c(cc3-c3sc5ccsc5c32)C(c2ccccc2)(c2ccccc2)c2c-4sc3ccsc23)cc1']","[0, 0, 0, 0, 0, 16, 5, 17, 6, 18, 48, 1, 9, 10, 11, 12, 14]"
J81,m-ITIC,-5.43,-2.98,-5.526666666666667,-3.8515384615384622,1.0,CF,_,160,11.05,11.04,0.96,69.83,"['CCCCCCCCC(C)CCCCCC', 'Cc1cccs1', 'CCC[Si](CCC)(CCC)c1cccs1', 'c1ccsc1', 'Fc1cc2nnnc2cc1F', 'Cc1cc2cc3occc3cc2o1']","['N#CCC#N', 'O=C1CCc2ccccc21', 'C', 'CCCCCC', 'c1ccc(C2(c3ccccc3)c3cc4c(cc3-c3sc5ccsc5c32)C(c2ccccc2)(c2ccccc2)c2c-4sc3ccsc23)cc1']","['CCCCCCCCC(C)CCCCCC', 'Cc1cccs1', 'CCC[Si](CCC)(CCC)c1cccs1', 'c1ccsc1', 'Fc1cc2nnnc2cc1F', 'Cc1cc2cc3occc3cc2o1', '.', 'N#CCC#N', 'O=C1CCc2ccccc21', 'C', 'CCCCCC', 'c1ccc(C2(c3ccccc3)c3cc4c(cc3-c3sc5ccsc5c32)C(c2ccccc2)(c2ccccc2)c2c-4sc3ccsc23)cc1']","[0, 0, 0, 0, 0, 16, 5, 17, 6, 18, 48, 1, 9, 10, 11, 12, 14]"
PBDT(T)[2F]T,ITIC,-5.22,-3.22,-5.574146341463415,-3.915,1.0,CB,_,160,9.8,9.85,0.94,62.0,"['CCCCC(C)CC', 'Cc1scc(F)c1F', 'c1ccsc1', 'Cc1cc2cc3sccc3cc2s1']","['N#CCC#N', 'O=C1CCc2ccccc21', 'C', 'CCCCCC', 'c1ccc(C2(c3ccccc3)c3cc4c(cc3-c3sc5ccsc5c32)C(c2ccccc2)(c2ccccc2)c2c-4sc3ccsc23)cc1']","['CCCCC(C)CC', 'Cc1scc(F)c1F', 'c1ccsc1', 'Cc1cc2cc3sccc3cc2s1', '.', 'N#CCC#N', 'O=C1CCc2ccccc21', 'C', 'CCCCCC', 'c1ccc(C2(c3ccccc3)c3cc4c(cc3-c3sc5ccsc5c32)C(c2ccccc2)(c2ccccc2)c2c-4sc3ccsc23)cc1']","[0, 0, 0, 0, 0, 0, 0, 3, 49, 6, 8, 1, 9, 10, 11, 12, 14]"
PBDT[2F]T,ITIC,-5.29,-3.19,-5.574146341463415,-3.915,1.5,CB,_,25,5.8,5.78,0.94,53.0,"['CCCCC(C)CC', 'O', 'Cc1scc(F)c1F', 'Cc1cc2cc3sccc3cc2s1']","['N#CCC#N', 'O=C1CCc2ccccc21', 'C', 'CCCCCC', 'c1ccc(C2(c3ccccc3)c3cc4c(cc3-c3sc5ccsc5c32)C(c2ccccc2)(c2ccccc2)c2c-4sc3ccsc23)cc1']","['CCCCC(C)CC', 'O', 'Cc1scc(F)c1F', 'Cc1cc2cc3sccc3cc2s1', '.', 'N#CCC#N', 'O=C1CCc2ccccc21', 'C', 'CCCCCC', 'c1ccc(C2(c3ccccc3)c3cc4c(cc3-c3sc5ccsc5c32)C(c2ccccc2)(c2ccccc2)c2c-4sc3ccsc23)cc1']","[0, 0, 0, 0, 0, 0, 0, 3, 2, 49, 8, 1, 9, 10, 11, 12, 14]"
PBDT-2TC,ITIC,-5.43,-3.57,-5.574146341463415,-3.915,1.0,CB,_,120,9.35,9.35,0.93,65.7,"['OS', 'CCCCCCC(C)CCCC', 'C=O', 'CCCCC(C)CC', 'Cc1cccs1', 'c1ccsc1', 'c1ccsc1', 'Cc1cc2cc3sccc3cc2s1']","['N#CCC#N', 'O=C1CCc2ccccc21', 'C', 'CCCCCC', 'c1ccc(C2(c3ccccc3)c3cc4c(cc3-c3sc5ccsc5c32)C(c2ccccc2)(c2ccccc2)c2c-4sc3ccsc23)cc1']","['OS', 'CCCCCCC(C)CCCC', 'C=O', 'CCCCC(C)CC', 'Cc1cccs1', 'c1ccsc1', 'c1ccsc1', 'Cc1cc2cc3sccc3cc2s1', '.', 'N#CCC#N', 'O=C1CCc2ccccc21', 'C', 'CCCCCC', 'c1ccc(C2(c3ccccc3)c3cc4c(cc3-c3sc5ccsc5c32)C(c2ccccc2)(c2ccccc2)c2c-4sc3ccsc23)cc1']","[0, 0, 0, 31, 32, 4, 3, 5, 6, 6, 8, 1, 9, 10, 11, 12, 14]"
PBDT-S-2TC,ITIC,-5.47,-3.58,-5.574146341463415,-3.915,1.0,CB,_,120,10.12,10.12,0.96,64.3,"['OS', 'CCCCCCC(C)CCCC', 'CCCCC(C)CC', 'C=O', 'S', 'Cc1cccs1', 'c1ccsc1', 'c1ccsc1', 'Cc1cc2cc3sccc3cc2s1']","['N#CCC#N', 'O=C1CCc2ccccc21', 'C', 'CCCCCC', 'c1ccc(C2(c3ccccc3)c3cc4c(cc3-c3sc5ccsc5c32)C(c2ccccc2)(c2ccccc2)c2c-4sc3ccsc23)cc1']","['OS', 'CCCCCCC(C)CCCC', 'CCCCC(C)CC', 'C=O', 'S', 'Cc1cccs1', 'c1ccsc1', 'c1ccsc1', 'Cc1cc2cc3sccc3cc2s1', '.', 'N#CCC#N', 'O=C1CCc2ccccc21', 'C', 'CCCCCC', 'c1ccc(C2(c3ccccc3)c3cc4c(cc3-c3sc5ccsc5c32)C(c2ccccc2)(c2ccccc2)c2c-4sc3ccsc23)cc1']","[0, 0, 31, 32, 3, 4, 24, 5, 6, 6, 8, 1, 9, 10, 11, 12, 14]"
PBDT-DTN,ITIC,-5.37,-3.53,-5.574146341463415,-3.915,0.667,CF,DPE,25,8.3,8.25,0.92,65.0,"['CCCCC(C)CC', 'Cc1cccs1', 'c1ccsc1', 'O=C1c2ccccc2C(=O)c2cscc21', 'c1ccsc1', 'Cc1cc2cc3sccc3cc2s1']","['N#CCC#N', 'O=C1CCc2ccccc21', 'C', 'CCCCCC', 'c1ccc(C2(c3ccccc3)c3cc4c(cc3-c3sc5ccsc5c32)C(c2ccccc2)(c2ccccc2)c2c-4sc3ccsc23)cc1']","['CCCCC(C)CC', 'Cc1cccs1', 'c1ccsc1', 'O=C1c2ccccc2C(=O)c2cscc21', 'c1ccsc1', 'Cc1cc2cc3sccc3cc2s1', '.', 'N#CCC#N', 'O=C1CCc2ccccc21', 'C', 'CCCCCC', 'c1ccc(C2(c3ccccc3)c3cc4c(cc3-c3sc5ccsc5c32)C(c2ccccc2)(c2ccccc2)c2c-4sc3ccsc23)cc1']","[0, 0, 0, 0, 0, 3, 5, 6, 50, 6, 8, 1, 9, 10, 11, 12, 14]"
PBDTSF-FBT,ITIC,-5.41,-3.6,-5.574146341463415,-3.915,1.0,CB,DIO,25,11.66,11.67,1.03,66.3,"['CCCCCCC(C)CCCC', 'CCCCCCCC', 'SS', 'Fc1ccsc1', 'Cc1cccs1', 'c1ccsc1', 'Fc1cc2nsnc2cc1F', 'Cc1cc2cc3sccc3cc2s1']","['N#CCC#N', 'O=C1CCc2ccccc21', 'C', 'CCCCCC', 'c1ccc(C2(c3ccccc3)c3cc4c(cc3-c3sc5ccsc5c32)C(c2ccccc2)(c2ccccc2)c2c-4sc3ccsc23)cc1']","['CCCCCCC(C)CCCC', 'CCCCCCCC', 'SS', 'Fc1ccsc1', 'Cc1cccs1', 'c1ccsc1', 'Fc1cc2nsnc2cc1F', 'Cc1cc2cc3sccc3cc2s1', '.', 'N#CCC#N', 'O=C1CCc2ccccc21', 'C', 'CCCCCC', 'c1ccc(C2(c3ccccc3)c3cc4c(cc3-c3sc5ccsc5c32)C(c2ccccc2)(c2ccccc2)c2c-4sc3ccsc23)cc1']","[0, 0, 0, 32, 20, 26, 23, 5, 6, 52, 8, 1, 9, 10, 11, 12, 14]"
PBDT-NQx,ITIC,-5.24,-3.42,-5.574146341463415,-3.915,1.25,CB,DIO,25,9.11,9.11,0.87,64.6,"['CCCCCCC(C)CCCC', 'CCCCCCCC', 'S', 'c1ccsc1', 'Cc1cccs1', 'Cc1cc2cc3sccc3cc2s1', 'c1cnc2c(ccc3c2ccc2nccnc23)n1']","['N#CCC#N', 'O=C1CCc2ccccc21', 'C', 'CCCCCC', 'c1ccc(C2(c3ccccc3)c3cc4c(cc3-c3sc5ccsc5c32)C(c2ccccc2)(c2ccccc2)c2c-4sc3ccsc23)cc1']","['CCCCCCC(C)CCCC', 'CCCCCCCC', 'S', 'c1ccsc1', 'Cc1cccs1', 'Cc1cc2cc3sccc3cc2s1', 'c1cnc2c(ccc3c2ccc2nccnc23)n1', '.', 'N#CCC#N', 'O=C1CCc2ccccc21', 'C', 'CCCCCC', 'c1ccc(C2(c3ccccc3)c3cc4c(cc3-c3sc5ccsc5c32)C(c2ccccc2)(c2ccccc2)c2c-4sc3ccsc23)cc1']","[0, 0, 0, 0, 32, 20, 24, 6, 5, 8, 54, 1, 9, 10, 11, 12, 14]"
PBDTS-NQx,ITIC,-5.31,-3.46,-5.574146341463415,-3.915,1.25,CB,DIO,25,11.47,11.47,0.92,69.8,"['CCCCCCC(C)CCCC', 'CCCCCCCC', 'SS', 'c1ccsc1', 'Cc1cccs1', 'Cc1cc2cc3sccc3cc2s1', 'c1cnc2c(ccc3c2ccc2nccnc23)n1']","['N#CCC#N', 'O=C1CCc2ccccc21', 'C', 'CCCCCC', 'c1ccc(C2(c3ccccc3)c3cc4c(cc3-c3sc5ccsc5c32)C(c2ccccc2)(c2ccccc2)c2c-4sc3ccsc23)cc1']","['CCCCCCC(C)CCCC', 'CCCCCCCC', 'SS', 'c1ccsc1', 'Cc1cccs1', 'Cc1cc2cc3sccc3cc2s1', 'c1cnc2c(ccc3c2ccc2nccnc23)n1', '.', 'N#CCC#N', 'O=C1CCc2ccccc21', 'C', 'CCCCCC', 'c1ccc(C2(c3ccccc3)c3cc4c(cc3-c3sc5ccsc5c32)C(c2ccccc2)(c2ccccc2)c2c-4sc3ccsc23)cc1']","[0, 0, 0, 0, 32, 20, 26, 6, 5, 8, 54, 1, 9, 10, 11, 12, 14]"
PBDTS-TDZ,ITIC,-5.39,-2.8,-5.574146341463415,-3.915,1.0,o-xylene,_,25,12.8,12.79,1.1,65.4,"['CCCCCCC(C)CCCC', 'CCCCCCCC', 'SS', 'Cc1cccs1', 'c1ccsc1', 'c1ccsc1', 'c1nncs1', 'Cc1cc2cc3sccc3cc2s1']","['N#CCC#N', 'O=C1CCc2ccccc21', 'C', 'CCCCCC', 'c1ccc(C2(c3ccccc3)c3cc4c(cc3-c3sc5ccsc5c32)C(c2ccccc2)(c2ccccc2)c2c-4sc3ccsc23)cc1']","['CCCCCCC(C)CCCC', 'CCCCCCCC', 'SS', 'Cc1cccs1', 'c1ccsc1', 'c1ccsc1', 'c1nncs1', 'Cc1cc2cc3sccc3cc2s1', '.', 'N#CCC#N', 'O=C1CCc2ccccc21', 'C', 'CCCCCC', 'c1ccc(C2(c3ccccc3)c3cc4c(cc3-c3sc5ccsc5c32)C(c2ccccc2)(c2ccccc2)c2c-4sc3ccsc23)cc1']","[0, 0, 0, 32, 20, 26, 5, 6, 6, 55, 8, 1, 9, 10, 11, 12, 14]"
PBDT-TDZ,ITIC,-5.35,-2.78,-5.574146341463415,-3.915,1.0,o-xylene,_,25,9.43,9.43,1.02,58.1,"['CCCCCCC(C)CCCC', 'CCCCCCC(CS)CCCC', 'CCCCCCCC', 'S', 'Cc1cccs1', 'c1ccsc1', 'c1ccsc1', 'c1nncs1', 'Cc1cc2cc3sccc3cc2s1']","['N#CCC#N', 'O=C1CCc2ccccc21', 'C', 'CCCCCC', 'c1ccc(C2(c3ccccc3)c3cc4c(cc3-c3sc5ccsc5c32)C(c2ccccc2)(c2ccccc2)c2c-4sc3ccsc23)cc1']","['CCCCCCC(C)CCCC', 'CCCCCCC(CS)CCCC', 'CCCCCCCC', 'S', 'Cc1cccs1', 'c1ccsc1', 'c1ccsc1', 'c1nncs1', 'Cc1cc2cc3sccc3cc2s1', '.', 'N#CCC#N', 'O=C1CCc2ccccc21', 'C', 'CCCCCC', 'c1ccc(C2(c3ccccc3)c3cc4c(cc3-c3sc5ccsc5c32)C(c2ccccc2)(c2ccccc2)c2c-4sc3ccsc23)cc1']","[0, 0, 32, 51, 20, 24, 5, 6, 6, 55, 8, 1, 9, 10, 11, 12, 14]"
PBFZ-OP,ITIC,-5.33,-3.01,-5.574146341463415,-3.915,1.0,CF,_,160,10.5,10.52,0.91,61.8,"['CCCCC(C)CC', 'O', 'CCCCCCCCC(C)CCCCCC', 'Cc1cccs1', 'c1ccsc1', 'Fc1cc2nnnc2cc1F', 'c1ccccc1', 'Cc1cc2cc3sccc3cc2s1']","['N#CCC#N', 'O=C1CCc2ccccc21', 'C', 'CCCCCC', 'c1ccc(C2(c3ccccc3)c3cc4c(cc3-c3sc5ccsc5c32)C(c2ccccc2)(c2ccccc2)c2c-4sc3ccsc23)cc1']","['CCCCC(C)CC', 'O', 'CCCCCCCCC(C)CCCCCC', 'Cc1cccs1', 'c1ccsc1', 'Fc1cc2nnnc2cc1F', 'c1ccccc1', 'Cc1cc2cc3sccc3cc2s1', '.', 'N#CCC#N', 'O=C1CCc2ccccc21', 'C', 'CCCCCC', 'c1ccc(C2(c3ccccc3)c3cc4c(cc3-c3sc5ccsc5c32)C(c2ccccc2)(c2ccccc2)c2c-4sc3ccsc23)cc1']","[0, 0, 0, 3, 2, 16, 5, 6, 18, 56, 8, 1, 9, 10, 11, 12, 14]"
PSBZ,ITIC,-5.37,-3.47,-5.574146341463415,-3.915,1.0,CB,_,140,10.5,10.48,0.89,62.0,"['CCCCCCC(C)CCCC', 'CCCCCCCCC(C)CCCCCC', 'CCCCCCC(CS)CCCC', 'c1ccsc1', 'Cc1cccs1', 'Fc1cc2nn(S)nc2cc1F', 'Cc1cc2cc3sccc3cc2s1']","['N#CCC#N', 'O=C1CCc2ccccc21', 'C', 'CCCCCC', 'c1ccc(C2(c3ccccc3)c3cc4c(cc3-c3sc5ccsc5c32)C(c2ccccc2)(c2ccccc2)c2c-4sc3ccsc23)cc1']","['CCCCCCC(C)CCCC', 'CCCCCCCCC(C)CCCCCC', 'CCCCCCC(CS)CCCC', 'c1ccsc1', 'Cc1cccs1', 'Fc1cc2nn(S)nc2cc1F', 'Cc1cc2cc3sccc3cc2s1', '.', 'N#CCC#N', 'O=C1CCc2ccccc21', 'C', 'CCCCCC', 'c1ccc(C2(c3ccccc3)c3cc4c(cc3-c3sc5ccsc5c32)C(c2ccccc2)(c2ccccc2)c2c-4sc3ccsc23)cc1']","[0, 0, 0, 0, 32, 16, 51, 6, 5, 57, 8, 1, 9, 10, 11, 12, 14]"
J71,ITIC1,-5.353333333333333,-3.4318181818181825,-5.48,-3.85,1.0,CF,_,100,8.47,8.41,0.92,61.2,"['CCCCCCCCC(C)CCCCCC', 'Cc1cccs1', 'CCC[Si](CCC)(CCC)c1cccs1', 'c1ccsc1', 'Fc1cc2nnnc2cc1F', 'Cc1cc2cc3sccc3cc2s1']","['N#CCC#N', 'O=C1CCc2ccccc21', 'C', 'CCCCCC', 'c1ccc(C2(c3ccccc3)c3ccsc3-c3sc4cc5c6c(sc5cc4c32)-c2sccc2C6(c2ccccc2)c2ccccc2)cc1']","['CCCCCCCCC(C)CCCCCC', 'Cc1cccs1', 'CCC[Si](CCC)(CCC)c1cccs1', 'c1ccsc1', 'Fc1cc2nnnc2cc1F', 'Cc1cc2cc3sccc3cc2s1', '.', 'N#CCC#N', 'O=C1CCc2ccccc21', 'C', 'CCCCCC', 'c1ccc(C2(c3ccccc3)c3ccsc3-c3sc4cc5c6c(sc5cc4c32)-c2sccc2C6(c2ccccc2)c2ccccc2)cc1']","[0, 0, 0, 0, 0, 16, 5, 17, 6, 18, 8, 1, 9, 10, 11, 12, 27]"
J71,ITIC5,-5.353333333333333,-3.4318181818181825,-5.48,-3.95,1.0,CF,_,100,12.2,12.23,0.892,74.7,"['CCCCCCCCC(C)CCCCCC', 'Cc1cccs1', 'CCC[Si](CCC)(CCC)c1cccs1', 'c1ccsc1', 'Fc1cc2nnnc2cc1F', 'Cc1cc2cc3sccc3cc2s1']","['N#CCC#N', 'O=C1CCc2cscc21', 'C', 'CCCCCC', 'c1ccc(C2(c3ccccc3)c3ccsc3-c3sc4cc5c6c(sc5cc4c32)-c2sccc2C6(c2ccccc2)c2ccccc2)cc1']","['CCCCCCCCC(C)CCCCCC', 'Cc1cccs1', 'CCC[Si](CCC)(CCC)c1cccs1', 'c1ccsc1', 'Fc1cc2nnnc2cc1F', 'Cc1cc2cc3sccc3cc2s1', '.', 'N#CCC#N', 'O=C1CCc2cscc21', 'C', 'CCCCCC', 'c1ccc(C2(c3ccccc3)c3ccsc3-c3sc4cc5c6c(sc5cc4c32)-c2sccc2C6(c2ccccc2)c2ccccc2)cc1']","[0, 0, 0, 0, 0, 16, 5, 17, 6, 18, 8, 1, 9, 40, 11, 12, 27]"
FTAZ,ITIC-Th,-5.43,-3.3200000000000003,-5.673333333333334,-3.908888888888889,0.667,CF,DIO,25,8.88,8.88,0.915,61.26,"['CCCCCCC(C)CCCC', 'S', 'Cc1cc2cc3sccc3cc2s1', 'Cc1cccs1', 'c1ccsc1', 'Fc1cc2nn(S)nc2cc1F']","['N#CCC#N', 'O=C1CCc2ccccc21', 'C', 'CCCCCC', 'c1csc(C2(c3cccs3)c3cc4c(cc3-c3sc5ccsc5c32)C(c2cccs2)(c2cccs2)c2c-4sc3ccsc23)c1']","['CCCCCCC(C)CCCC', 'S', 'Cc1cc2cc3sccc3cc2s1', 'Cc1cccs1', 'c1ccsc1', 'Fc1cc2nn(S)nc2cc1F', '.', 'N#CCC#N', 'O=C1CCc2ccccc21', 'C', 'CCCCCC', 'c1csc(C2(c3cccs3)c3cc4c(cc3-c3sc5ccsc5c32)C(c2cccs2)(c2cccs2)c2c-4sc3ccsc23)c1']","[0, 0, 0, 0, 0, 32, 24, 8, 5, 6, 57, 1, 9, 10, 11, 12, 59]"
FTAZ,ITIC-Th1,-5.43,-3.3200000000000003,-5.720000000000001,-4.065,0.667,CF,DIO,25,12.1,12.1,0.849,73.73,"['CCCCCCC(C)CCCC', 'S', 'Cc1cc2cc3sccc3cc2s1', 'Cc1cccs1', 'c1ccsc1', 'Fc1cc2nn(S)nc2cc1F']","['N#CCC#N', 'O=C1CCc2ccc(F)cc21', 'C', 'CCCCCC', 'c1csc(C2(c3cccs3)c3cc4c(cc3-c3sc5ccsc5c32)C(c2cccs2)(c2cccs2)c2c-4sc3ccsc23)c1']","['CCCCCCC(C)CCCC', 'S', 'Cc1cc2cc3sccc3cc2s1', 'Cc1cccs1', 'c1ccsc1', 'Fc1cc2nn(S)nc2cc1F', '.', 'N#CCC#N', 'O=C1CCc2ccc(F)cc21', 'C', 'CCCCCC', 'c1csc(C2(c3cccs3)c3cc4c(cc3-c3sc5ccsc5c32)C(c2cccs2)(c2cccs2)c2c-4sc3ccsc23)c1']","[0, 0, 0, 0, 0, 32, 24, 8, 5, 6, 57, 1, 9, 60, 11, 12, 59]"
FTAZ,ITIC-Th2,-5.43,-3.3200000000000003,-5.75,-4.07,0.667,CF,DIO,25,9.06,9.05,0.751,70.07,"['CCCCCCC(C)CCCC', 'S', 'Cc1cc2cc3sccc3cc2s1', 'Cc1cccs1', 'c1ccsc1', 'Fc1cc2nn(S)nc2cc1F']","['N#CCC#N', 'O=C1CCc2cc(F)c(F)cc21', 'C', 'CCCCCC', 'c1csc(C2(c3cccs3)c3cc4c(cc3-c3sc5ccsc5c32)C(c2cccs2)(c2cccs2)c2c-4sc3ccsc23)c1']","['CCCCCCC(C)CCCC', 'S', 'Cc1cc2cc3sccc3cc2s1', 'Cc1cccs1', 'c1ccsc1', 'Fc1cc2nn(S)nc2cc1F', '.', 'N#CCC#N', 'O=C1CCc2cc(F)c(F)cc21', 'C', 'CCCCCC', 'c1csc(C2(c3cccs3)c3cc4c(cc3-c3sc5ccsc5c32)C(c2cccs2)(c2cccs2)c2c-4sc3ccsc23)c1']","[0, 0, 0, 0, 0, 32, 24, 8, 5, 6, 57, 1, 9, 39, 11, 12, 59]"
FTAZ,ITIC-Th3,-5.43,-3.3200000000000003,-5.67,-3.73,0.667,CF,DIO,25,10.7,10.74,0.962,68.33,"['CCCCCCC(C)CCCC', 'S', 'Cc1cc2cc3sccc3cc2s1', 'Cc1cccs1', 'c1ccsc1', 'Fc1cc2nn(S)nc2cc1F']","['CO', 'N#CCC#N', 'O=C1CCc2ccccc21', 'C', 'CCCCCC', 'c1csc(C2(c3cccs3)c3cc4c(cc3-c3sc5ccsc5c32)C(c2cccs2)(c2cccs2)c2c-4sc3ccsc23)c1']","['CCCCCCC(C)CCCC', 'S', 'Cc1cc2cc3sccc3cc2s1', 'Cc1cccs1', 'c1ccsc1', 'Fc1cc2nn(S)nc2cc1F', '.', 'CO', 'N#CCC#N', 'O=C1CCc2ccccc21', 'C', 'CCCCCC', 'c1csc(C2(c3cccs3)c3cc4c(cc3-c3sc5ccsc5c32)C(c2cccs2)(c2cccs2)c2c-4sc3ccsc23)c1']","[0, 0, 0, 0, 32, 24, 8, 5, 6, 57, 1, 61, 9, 10, 11, 12, 59]"
J52,IT-M,-5.218571428571429,-3.341428571428572,-5.513571428571429,-3.808,1.0,CB,DIO,150,9.4,9.38,0.843,65.1,"['CCCCCCCCC(C)CCCCCC', 'CCCCC(C)CC', 'CCCCC(C)CC', 'c1ccsc1', 'Cc1cccs1', 'Fc1cc2nnnc2cc1F', 'Cc1cc2cc3sccc3cc2s1']","['N#CCC#N', 'Cc1ccc2c(c1)CCC2=O', 'C', 'CCCCCC', 'c1ccc(C2(c3ccccc3)c3cc4c(cc3-c3sc5ccsc5c32)C(c2ccccc2)(c2ccccc2)c2c-4sc3ccsc23)cc1']","['CCCCCCCCC(C)CCCCCC', 'CCCCC(C)CC', 'CCCCC(C)CC', 'c1ccsc1', 'Cc1cccs1', 'Fc1cc2nnnc2cc1F', 'Cc1cc2cc3sccc3cc2s1', '.', 'N#CCC#N', 'Cc1ccc2c(c1)CCC2=O', 'C', 'CCCCCC', 'c1ccc(C2(c3ccccc3)c3cc4c(cc3-c3sc5ccsc5c32)C(c2ccccc2)(c2ccccc2)c2c-4sc3ccsc23)cc1']","[0, 0, 0, 0, 16, 3, 3, 6, 5, 18, 8, 1, 9, 15, 11, 12, 14]"
J52,IEICO,-5.218571428571429,-3.341428571428572,-5.32,-3.95,1.0,CB,DIO,150,6.5,6.53,0.848,51.0,"['CCCCCCCCC(C)CCCCCC', 'CCCCC(C)CC', 'CCCCC(C)CC', 'c1ccsc1', 'Cc1cccs1', 'Fc1cc2nnnc2cc1F', 'Cc1cc2cc3sccc3cc2s1']","['CCCCC(C)CC', 'O', 'N#CCC#N', 'O=C1CCc2ccccc21', 'C', 'CCCCCC', 'c1ccsc1', 'c1ccc(C2(c3ccccc3)c3cc4c(cc3-c3sccc32)C(c2ccccc2)(c2ccccc2)c2ccsc2-4)cc1']","['CCCCCCCCC(C)CCCCCC', 'CCCCC(C)CC', 'CCCCC(C)CC', 'c1ccsc1', 'Cc1cccs1', 'Fc1cc2nnnc2cc1F', 'Cc1cc2cc3sccc3cc2s1', '.', 'CCCCC(C)CC', 'O', 'N#CCC#N', 'O=C1CCc2ccccc21', 'C', 'CCCCCC', 'c1ccsc1', 'c1ccc(C2(c3ccccc3)c3cc4c(cc3-c3sccc32)C(c2ccccc2)(c2ccccc2)c2ccsc2-4)cc1']","[0, 16, 3, 3, 6, 5, 18, 8, 1, 3, 2, 9, 10, 11, 12, 6, 36]"
J71,ITVffIC,-5.353333333333333,-3.4318181818181825,-5.58,-4.04,0.833,CF,CN,160,10.54,10.54,0.81,63.18,"['CCCCCCCCC(C)CCCCCC', 'Cc1cccs1', 'CCC[Si](CCC)(CCC)c1cccs1', 'c1ccsc1', 'Fc1cc2nnnc2cc1F', 'Cc1cc2cc3sccc3cc2s1']","['N#CCC#N', 'CC', 'O=C1CCc2cc(F)c(F)cc21', 'C', 'CCCCCC', 'c1ccc(C2(c3ccccc3)c3cc4c(cc3-c3sc5ccsc5c32)C(c2ccccc2)(c2ccccc2)c2c-4sc3ccsc23)cc1']","['CCCCCCCCC(C)CCCCCC', 'Cc1cccs1', 'CCC[Si](CCC)(CCC)c1cccs1', 'c1ccsc1', 'Fc1cc2nnnc2cc1F', 'Cc1cc2cc3sccc3cc2s1', '.', 'N#CCC#N', 'CC', 'O=C1CCc2cc(F)c(F)cc21', 'C', 'CCCCCC', 'c1ccc(C2(c3ccccc3)c3cc4c(cc3-c3sc5ccsc5c32)C(c2ccccc2)(c2ccccc2)c2c-4sc3ccsc23)cc1']","[0, 0, 0, 0, 16, 5, 17, 6, 18, 8, 1, 9, 21, 39, 11, 12, 14]"
J71,ITVfIC,-5.353333333333333,-3.4318181818181825,-5.56,-4.01,0.833,CF,_,160,9.72,9.72,0.84,58.67,"['CCCCCCCCC(C)CCCCCC', 'Cc1cccs1', 'CCC[Si](CCC)(CCC)c1cccs1', 'c1ccsc1', 'Fc1cc2nnnc2cc1F', 'Cc1cc2cc3sccc3cc2s1']","['N#CCC#N', 'O=C1CCc2ccc(F)cc21', 'C', 'CCCCCC', 'c1ccc(C2(c3ccccc3)c3cc4c(cc3-c3sc5ccsc5c32)C(c2ccccc2)(c2ccccc2)c2c-4sc3ccsc23)cc1']","['CCCCCCCCC(C)CCCCCC', 'Cc1cccs1', 'CCC[Si](CCC)(CCC)c1cccs1', 'c1ccsc1', 'Fc1cc2nnnc2cc1F', 'Cc1cc2cc3sccc3cc2s1', '.', 'N#CCC#N', 'O=C1CCc2ccc(F)cc21', 'C', 'CCCCCC', 'c1ccc(C2(c3ccccc3)c3cc4c(cc3-c3sc5ccsc5c32)C(c2ccccc2)(c2ccccc2)c2c-4sc3ccsc23)cc1']","[0, 0, 0, 0, 0, 16, 5, 17, 6, 18, 8, 1, 9, 60, 11, 12, 14]"