Donor,Acceptor,HOMO_D_eV,LUMO_D_eV,HOMO_A_eV,LUMO_A_eV,D_A_ratio_m_m,solvent,solvent_additive,annealing_temperature,PCE_percent,calc_PCE_percent,Voc_V,FF_percent,Donor_BRICS,Acceptor_BRICS,DA_pair_BRICS,DA_tokenized_BRICS
PJ3,m-ITIC,-5.01,-3.26,-5.526666666666667,-3.8515384615384622,0.667,CF,DIO,130,7.76,7.74,0.96,63.5,"['CCCCCCCCCCC(C)CCCCCCCC', 'CCC[Si](CCC)(CCC)c1cccs1', 'Cc1cccs1', 'c1ccsc1', 'Fc1cc2nsnc2cc1F', 'Cc1cc2cc3sccc3cc2s1']","['N#CCC#N', 'O=C1CCc2ccccc21', 'C', 'CCCCCC', 'c1ccc(C2(c3ccccc3)c3cc4c(cc3-c3sc5ccsc5c32)C(c2ccccc2)(c2ccccc2)c2c-4sc3ccsc23)cc1']","['CCCCCCCCCCC(C)CCCCCCCC', 'CCC[Si](CCC)(CCC)c1cccs1', 'Cc1cccs1', 'c1ccsc1', 'Fc1cc2nsnc2cc1F', 'Cc1cc2cc3sccc3cc2s1', '.', 'N#CCC#N', 'O=C1CCc2ccccc21', 'C', 'CCCCCC', 'c1ccc(C2(c3ccccc3)c3cc4c(cc3-c3sc5ccsc5c32)C(c2ccccc2)(c2ccccc2)c2c-4sc3ccsc23)cc1']","[0, 0, 0, 0, 0, 42, 17, 5, 6, 52, 8, 1, 9, 10, 11, 12, 14]"
PJ3,IDIC,-5.01,-3.26,-5.706,-4.002666666666667,0.667,CF,DIO,130,8.11,8.11,0.908,69.8,"['CCCCCCCCCCC(C)CCCCCCCC', 'CCC[Si](CCC)(CCC)c1cccs1', 'Cc1cccs1', 'c1ccsc1', 'Fc1cc2nsnc2cc1F', 'Cc1cc2cc3sccc3cc2s1']","['N#CCC#N', 'O=C1CCc2ccccc21', 'C', 'CCCCCCC1(CCCCCC)c2cc3c(cc2-c2sccc21)C(CCCCCC)(CCCCCC)c1ccsc1-3']","['CCCCCCCCCCC(C)CCCCCCCC', 'CCC[Si](CCC)(CCC)c1cccs1', 'Cc1cccs1', 'c1ccsc1', 'Fc1cc2nsnc2cc1F', 'Cc1cc2cc3sccc3cc2s1', '.', 'N#CCC#N', 'O=C1CCc2ccccc21', 'C', 'CCCCCCC1(CCCCCC)c2cc3c(cc2-c2sccc21)C(CCCCCC)(CCCCCC)c1ccsc1-3']","[0, 0, 0, 0, 0, 0, 42, 17, 5, 6, 52, 8, 1, 9, 10, 11, 28]"
2D-PBTCl,ITIC,-5.45,-3.6,-5.574146341463415,-3.915,1.0,CB,DIO,25,8.81,8.81,0.91,61.32,"['O', 'CCCCC(C)CC', 'C=O', 'CCCCC(C)CC', 'c1ccsc1', 'Cc1scc2scc(Cl)c12', 'Cc1cc2cc3sccc3cc2s1']","['N#CCC#N', 'O=C1CCc2ccccc21', 'C', 'CCCCCC', 'c1ccc(C2(c3ccccc3)c3cc4c(cc3-c3sc5ccsc5c32)C(c2ccccc2)(c2ccccc2)c2c-4sc3ccsc23)cc1']","['O', 'CCCCC(C)CC', 'C=O', 'CCCCC(C)CC', 'c1ccsc1', 'Cc1scc2scc(Cl)c12', 'Cc1cc2cc3sccc3cc2s1', '.', 'N#CCC#N', 'O=C1CCc2ccccc21', 'C', 'CCCCCC', 'c1ccc(C2(c3ccccc3)c3cc4c(cc3-c3sc5ccsc5c32)C(c2ccccc2)(c2ccccc2)c2c-4sc3ccsc23)cc1']","[0, 0, 0, 0, 2, 3, 4, 3, 6, 222, 8, 1, 9, 10, 11, 12, 14]"
2D-PBTCl2,ITIC,-5.43,-3.63,-5.574146341463415,-3.915,1.0,CB,DIO,25,7.38,7.38,0.87,58.43,"['O', 'CCCCC(C)CC', 'C=O', 'CCCCC(C)CC', 'Clc1ccsc1', 'c1ccsc1', 'Cc1scc2scc(Cl)c12', 'Cc1cc2cc3sccc3cc2s1']","['N#CCC#N', 'O=C1CCc2ccccc21', 'C', 'CCCCCC', 'c1ccc(C2(c3ccccc3)c3cc4c(cc3-c3sc5ccsc5c32)C(c2ccccc2)(c2ccccc2)c2c-4sc3ccsc23)cc1']","['O', 'CCCCC(C)CC', 'C=O', 'CCCCC(C)CC', 'Clc1ccsc1', 'c1ccsc1', 'Cc1scc2scc(Cl)c12', 'Cc1cc2cc3sccc3cc2s1', '.', 'N#CCC#N', 'O=C1CCc2ccccc21', 'C', 'CCCCCC', 'c1ccc(C2(c3ccccc3)c3cc4c(cc3-c3sc5ccsc5c32)C(c2ccccc2)(c2ccccc2)c2c-4sc3ccsc23)cc1']","[0, 0, 0, 2, 3, 4, 3, 161, 6, 222, 8, 1, 9, 10, 11, 12, 14]"
PTB7-Th,ITIC,-5.204782608695651,-3.5391891891891896,-5.574146341463415,-3.915,1.0,CB,DIO,25,6.91,6.91,0.82,57.09,"['O', 'CCCCC(C)CC', 'C=O', 'CCCCC(C)CC', 'Cc1scc2scc(F)c12', 'c1ccsc1', 'Cc1cc2cc3sccc3cc2s1']","['N#CCC#N', 'O=C1CCc2ccccc21', 'C', 'CCCCCC', 'c1ccc(C2(c3ccccc3)c3cc4c(cc3-c3sc5ccsc5c32)C(c2ccccc2)(c2ccccc2)c2c-4sc3ccsc23)cc1']","['O', 'CCCCC(C)CC', 'C=O', 'CCCCC(C)CC', 'Cc1scc2scc(F)c12', 'c1ccsc1', 'Cc1cc2cc3sccc3cc2s1', '.', 'N#CCC#N', 'O=C1CCc2ccccc21', 'C', 'CCCCCC', 'c1ccc(C2(c3ccccc3)c3cc4c(cc3-c3sc5ccsc5c32)C(c2ccccc2)(c2ccccc2)c2c-4sc3ccsc23)cc1']","[0, 0, 0, 0, 2, 3, 4, 3, 33, 6, 8, 1, 9, 10, 11, 12, 14]"
PBClT,ITIC,-5.47,-3.61,-5.574146341463415,-3.915,1.0,CB,_,25,8.46,8.46,1.01,60.05,"['O', 'CCCCC(C)CC', 'C=O', 'CCCCC(C)CC', 'Cc1scc2scc(F)c12', 'Clc1ccsc1', 'Cc1cc2cc3sccc3cc2s1']","['N#CCC#N', 'O=C1CCc2ccccc21', 'C', 'CCCCCC', 'c1ccc(C2(c3ccccc3)c3cc4c(cc3-c3sc5ccsc5c32)C(c2ccccc2)(c2ccccc2)c2c-4sc3ccsc23)cc1']","['O', 'CCCCC(C)CC', 'C=O', 'CCCCC(C)CC', 'Cc1scc2scc(F)c12', 'Clc1ccsc1', 'Cc1cc2cc3sccc3cc2s1', '.', 'N#CCC#N', 'O=C1CCc2ccccc21', 'C', 'CCCCCC', 'c1ccc(C2(c3ccccc3)c3cc4c(cc3-c3sc5ccsc5c32)C(c2ccccc2)(c2ccccc2)c2c-4sc3ccsc23)cc1']","[0, 0, 0, 0, 2, 3, 4, 3, 33, 161, 8, 1, 9, 10, 11, 12, 14]"
PBDB-T,BDCPDT-IC,-5.297714285714285,-3.4170000000000003,-5.41,-3.87,1.0,CB,DIO,25,9.33,9.33,0.86,65.52,"['CCCCC(C)CC', 'Cc1cccs1', 'c1ccsc1', 'O=C1c2cscc2C(=O)c2cscc21', 'Cc1cc2cc3sccc3cc2s1']","['N#CCC#N', 'O=C1CCc2ccccc21', 'C', 'CCCCCC', 'c1ccc(C2(c3ccccc3)c3ccsc3-c3sc4cc5c6c(sc5cc4c32)-c2sccc2C6(c2ccccc2)c2ccccc2)cc1']","['CCCCC(C)CC', 'Cc1cccs1', 'c1ccsc1', 'O=C1c2cscc2C(=O)c2cscc21', 'Cc1cc2cc3sccc3cc2s1', '.', 'N#CCC#N', 'O=C1CCc2ccccc21', 'C', 'CCCCCC', 'c1ccc(C2(c3ccccc3)c3ccsc3-c3sc4cc5c6c(sc5cc4c32)-c2sccc2C6(c2ccccc2)c2ccccc2)cc1']","[0, 0, 0, 0, 0, 0, 3, 5, 6, 29, 8, 1, 9, 10, 11, 12, 27]"
PBDB-T,BDCPDT-FIC,-5.297714285714285,-3.4170000000000003,-5.52,-4.0,1.0,CB,_,25,8.12,8.12,0.7,60.67,"['CCCCC(C)CC', 'Cc1cccs1', 'c1ccsc1', 'O=C1c2cscc2C(=O)c2cscc21', 'Cc1cc2cc3sccc3cc2s1']","['N#CCC#N', 'O=C1CCc2cc(F)c(F)cc21', 'C', 'CCCCCC', 'c1ccc(C2(c3ccccc3)c3ccsc3-c3sc4cc5c6c(sc5cc4c32)-c2sccc2C6(c2ccccc2)c2ccccc2)cc1']","['CCCCC(C)CC', 'Cc1cccs1', 'c1ccsc1', 'O=C1c2cscc2C(=O)c2cscc21', 'Cc1cc2cc3sccc3cc2s1', '.', 'N#CCC#N', 'O=C1CCc2cc(F)c(F)cc21', 'C', 'CCCCCC', 'c1ccc(C2(c3ccccc3)c3ccsc3-c3sc4cc5c6c(sc5cc4c32)-c2sccc2C6(c2ccccc2)c2ccccc2)cc1']","[0, 0, 0, 0, 0, 0, 3, 5, 6, 29, 8, 1, 9, 39, 11, 12, 27]"
PBFTT,ITIC,-5.47,-3.56,-5.574146341463415,-3.915,0.667,CB,_,25,9.1,9.1,0.94,60.5,"['O', 'CCCCCCCC', 'C=O', 'CCCCC(C)CC', 'Cc1scc2scc(F)c12', 'Fc1ccsc1', 'Cc1cc2cc3sccc3cc2s1']","['N#CCC#N', 'O=C1CCc2ccccc21', 'C', 'CCCCCC', 'c1ccc(C2(c3ccccc3)c3cc4c(cc3-c3sc5ccsc5c32)C(c2ccccc2)(c2ccccc2)c2c-4sc3ccsc23)cc1']","['O', 'CCCCCCCC', 'C=O', 'CCCCC(C)CC', 'Cc1scc2scc(F)c12', 'Fc1ccsc1', 'Cc1cc2cc3sccc3cc2s1', '.', 'N#CCC#N', 'O=C1CCc2ccccc21', 'C', 'CCCCCC', 'c1ccc(C2(c3ccccc3)c3cc4c(cc3-c3sc5ccsc5c32)C(c2ccccc2)(c2ccccc2)c2c-4sc3ccsc23)cc1']","[0, 0, 0, 0, 2, 20, 4, 3, 33, 23, 8, 1, 9, 10, 11, 12, 14]"
PBDB-O,ITIC,-5.3,-2.82,-5.574146341463415,-3.915,1.0,CB,DIO,160,4.35,4.32,0.846,43.3,"['CCCCC(C)CC', 'O', 'CCCCC(C)CC', 'Cc1cccs1', 'Cc1cc2cc3sccc3cc2s1', 'O=C1c2cscc2C(=O)c2cscc21', 'c1ccsc1']","['N#CCC#N', 'O=C1CCc2ccccc21', 'C', 'CCCCCC', 'c1ccc(C2(c3ccccc3)c3cc4c(cc3-c3sc5ccsc5c32)C(c2ccccc2)(c2ccccc2)c2c-4sc3ccsc23)cc1']","['CCCCC(C)CC', 'O', 'CCCCC(C)CC', 'Cc1cccs1', 'Cc1cc2cc3sccc3cc2s1', 'O=C1c2cscc2C(=O)c2cscc21', 'c1ccsc1', '.', 'N#CCC#N', 'O=C1CCc2ccccc21', 'C', 'CCCCCC', 'c1ccc(C2(c3ccccc3)c3cc4c(cc3-c3sc5ccsc5c32)C(c2ccccc2)(c2ccccc2)c2c-4sc3ccsc23)cc1']","[0, 0, 0, 0, 3, 2, 3, 5, 8, 29, 6, 1, 9, 10, 11, 12, 14]"
PBDB-T,BDTIT-M,-5.297714285714285,-3.4170000000000003,-5.4,-3.85,1.0,CB,DIO,100,11.31,11.31,0.903,71.3,"['CCCCC(C)CC', 'Cc1cccs1', 'c1ccsc1', 'O=C1c2cscc2C(=O)c2cscc21', 'Cc1cc2cc3sccc3cc2s1']","['N#CCC#N', 'Cc1ccc2c(c1)CCC2=O', 'C', 'CCCCC(C)CC', 'CCCCCC', 'c1ccsc1', 'c1ccc(C2(c3ccccc3)c3ccsc3-c3sc4cc5c6c(sc5cc4c32)-c2sccc2C6(c2ccccc2)c2ccccc2)cc1']","['CCCCC(C)CC', 'Cc1cccs1', 'c1ccsc1', 'O=C1c2cscc2C(=O)c2cscc21', 'Cc1cc2cc3sccc3cc2s1', '.', 'N#CCC#N', 'Cc1ccc2c(c1)CCC2=O', 'C', 'CCCCC(C)CC', 'CCCCCC', 'c1ccsc1', 'c1ccc(C2(c3ccccc3)c3ccsc3-c3sc4cc5c6c(sc5cc4c32)-c2sccc2C6(c2ccccc2)c2ccccc2)cc1']","[0, 0, 0, 0, 3, 5, 6, 29, 8, 1, 9, 15, 11, 3, 12, 6, 27]"
PBDB-T,BDTThIT-M,-5.297714285714285,-3.4170000000000003,-5.35,-3.82,1.0,CB,DIO,100,12.12,12.13,0.942,71.4,"['CCCCC(C)CC', 'Cc1cccs1', 'c1ccsc1', 'O=C1c2cscc2C(=O)c2cscc21', 'Cc1cc2cc3sccc3cc2s1']","['N#CCC#N', 'Cc1ccc2c(c1)CCC2=O', 'C', 'CCCCCC', 'c1ccc(C2(c3ccccc3)c3ccsc3-c3sc4cc5c6c(sc5cc4c32)-c2sccc2C6(c2ccccc2)c2ccccc2)cc1']","['CCCCC(C)CC', 'Cc1cccs1', 'c1ccsc1', 'O=C1c2cscc2C(=O)c2cscc21', 'Cc1cc2cc3sccc3cc2s1', '.', 'N#CCC#N', 'Cc1ccc2c(c1)CCC2=O', 'C', 'CCCCCC', 'c1ccc(C2(c3ccccc3)c3ccsc3-c3sc4cc5c6c(sc5cc4c32)-c2sccc2C6(c2ccccc2)c2ccccc2)cc1']","[0, 0, 0, 0, 0, 0, 3, 5, 6, 29, 8, 1, 9, 15, 11, 12, 27]"
J60,ITIC,-5.32,-3.08,-5.574146341463415,-3.915,1.0,CF,_,25,5.17,5.17,0.92,57.45,"['CCCCC(C)CC', 'CCCCCCCCC(C)CCCCCC', 'S', 'c1ccsc1', 'Cc1cccs1', 'Fc1cc2nnnc2cc1F', 'Cc1cc2cc3sccc3cc2s1']","['N#CCC#N', 'O=C1CCc2ccccc21', 'C', 'CCCCCC', 'c1ccc(C2(c3ccccc3)c3cc4c(cc3-c3sc5ccsc5c32)C(c2ccccc2)(c2ccccc2)c2c-4sc3ccsc23)cc1']","['CCCCC(C)CC', 'CCCCCCCCC(C)CCCCCC', 'S', 'c1ccsc1', 'Cc1cccs1', 'Fc1cc2nnnc2cc1F', 'Cc1cc2cc3sccc3cc2s1', '.', 'N#CCC#N', 'O=C1CCc2ccccc21', 'C', 'CCCCCC', 'c1ccc(C2(c3ccccc3)c3cc4c(cc3-c3sc5ccsc5c32)C(c2ccccc2)(c2ccccc2)c2c-4sc3ccsc23)cc1']","[0, 0, 0, 0, 3, 16, 24, 6, 5, 18, 8, 1, 9, 10, 11, 12, 14]"
J61,ITIC,-5.303333333333334,-3.151666666666667,-5.574146341463415,-3.915,1.0,CF,_,25,9.15,9.05,0.91,66.55,"['CCCCCCCCCCCC', 'CCCCCCCCC(C)CCCCCC', 'SS', 'c1ccsc1', 'Cc1cccs1', 'Fc1cc2nnnc2cc1F', 'Cc1cc2cc3sccc3cc2s1']","['N#CCC#N', 'O=C1CCc2ccccc21', 'C', 'CCCCCC', 'c1ccc(C2(c3ccccc3)c3cc4c(cc3-c3sc5ccsc5c32)C(c2ccccc2)(c2ccccc2)c2c-4sc3ccsc23)cc1']","['CCCCCCCCCCCC', 'CCCCCCCCC(C)CCCCCC', 'SS', 'c1ccsc1', 'Cc1cccs1', 'Fc1cc2nnnc2cc1F', 'Cc1cc2cc3sccc3cc2s1', '.', 'N#CCC#N', 'O=C1CCc2ccccc21', 'C', 'CCCCCC', 'c1ccc(C2(c3ccccc3)c3cc4c(cc3-c3sc5ccsc5c32)C(c2ccccc2)(c2ccccc2)c2c-4sc3ccsc23)cc1']","[0, 0, 0, 0, 25, 16, 26, 6, 5, 18, 8, 1, 9, 10, 11, 12, 14]"
PTB7,IEICO-4F,-5.175,-3.435,-5.309971428571429,-3.851028571428572,0.667,CB,DIO,25,2.3,2.3,0.54,28.92,"['O', 'CCCCC(C)CC', 'C=O', 'Cc1scc2scc(F)c12', 'Cc1cc2cc3sccc3cc2s1']","['CCCCC(C)CC', 'O', 'N#CCC#N', 'O=C1CCc2cc(F)c(F)cc21', 'C', 'CCCCCC', 'c1ccsc1', 'c1ccc(C2(c3ccccc3)c3cc4c(cc3-c3sccc32)C(c2ccccc2)(c2ccccc2)c2ccsc2-4)cc1']","['O', 'CCCCC(C)CC', 'C=O', 'Cc1scc2scc(F)c12', 'Cc1cc2cc3sccc3cc2s1', '.', 'CCCCC(C)CC', 'O', 'N#CCC#N', 'O=C1CCc2cc(F)c(F)cc21', 'C', 'CCCCCC', 'c1ccsc1', 'c1ccc(C2(c3ccccc3)c3cc4c(cc3-c3sccc32)C(c2ccccc2)(c2ccccc2)c2ccsc2-4)cc1']","[0, 0, 0, 2, 3, 4, 33, 8, 1, 3, 2, 9, 39, 11, 12, 6, 36]"
PTB7-Th,IEICO-4F,-5.204782608695651,-3.5391891891891896,-5.309971428571429,-3.851028571428572,0.667,CB,CN,25,11.6,11.6,0.72,69.41,"['O', 'CCCCC(C)CC', 'C=O', 'CCCCC(C)CC', 'Cc1scc2scc(F)c12', 'c1ccsc1', 'Cc1cc2cc3sccc3cc2s1']","['CCCCC(C)CC', 'O', 'N#CCC#N', 'O=C1CCc2cc(F)c(F)cc21', 'C', 'CCCCCC', 'c1ccsc1', 'c1ccc(C2(c3ccccc3)c3cc4c(cc3-c3sccc32)C(c2ccccc2)(c2ccccc2)c2ccsc2-4)cc1']","['O', 'CCCCC(C)CC', 'C=O', 'CCCCC(C)CC', 'Cc1scc2scc(F)c12', 'c1ccsc1', 'Cc1cc2cc3sccc3cc2s1', '.', 'CCCCC(C)CC', 'O', 'N#CCC#N', 'O=C1CCc2cc(F)c(F)cc21', 'C', 'CCCCCC', 'c1ccsc1', 'c1ccc(C2(c3ccccc3)c3cc4c(cc3-c3sccc32)C(c2ccccc2)(c2ccccc2)c2ccsc2-4)cc1']","[0, 2, 3, 4, 3, 33, 6, 8, 1, 3, 2, 9, 39, 11, 12, 6, 36]"
PBO,ITIC,-5.47,-3.67,-5.574146341463415,-3.915,0.5,DCB,DIO,25,7.1,7.1,0.92,54.0,"['OS', 'CCCCCCCCCCCC', 'CCCCC(C)CC', 'S', 'Cc1cccs1', 'c1ccsc1', 'c1ccc2nonc2c1', 'c1ccccc1', 'Cc1cc2cc3sccc3cc2s1']","['N#CCC#N', 'O=C1CCc2ccccc21', 'C', 'CCCCCC', 'c1ccc(C2(c3ccccc3)c3cc4c(cc3-c3sc5ccsc5c32)C(c2ccccc2)(c2ccccc2)c2c-4sc3ccsc23)cc1']","['OS', 'CCCCCCCCCCCC', 'CCCCC(C)CC', 'S', 'Cc1cccs1', 'c1ccsc1', 'c1ccc2nonc2c1', 'c1ccccc1', 'Cc1cc2cc3sccc3cc2s1', '.', 'N#CCC#N', 'O=C1CCc2ccccc21', 'C', 'CCCCCC', 'c1ccc(C2(c3ccccc3)c3cc4c(cc3-c3sc5ccsc5c32)C(c2ccccc2)(c2ccccc2)c2c-4sc3ccsc23)cc1']","[0, 0, 31, 25, 3, 24, 5, 6, 182, 56, 8, 1, 9, 10, 11, 12, 14]"
PBDB-T,TTIC-M,-5.297714285714285,-3.4170000000000003,-5.49,-4.03,1.0,CB,_,25,9.85,9.97,0.83,63.0,"['CCCCC(C)CC', 'Cc1cccs1', 'c1ccsc1', 'O=C1c2cscc2C(=O)c2cscc21', 'Cc1cc2cc3sccc3cc2s1']","['N#CCC#N', 'Cc1ccc2c(c1)CCC2=O', 'C', 'CCCCCC', 'c1ccc(C2(c3ccccc3)c3ccsc3-c3sc4c5c(sc4c32)-c2sccc2C5(c2ccccc2)c2ccccc2)cc1']","['CCCCC(C)CC', 'Cc1cccs1', 'c1ccsc1', 'O=C1c2cscc2C(=O)c2cscc21', 'Cc1cc2cc3sccc3cc2s1', '.', 'N#CCC#N', 'Cc1ccc2c(c1)CCC2=O', 'C', 'CCCCCC', 'c1ccc(C2(c3ccccc3)c3ccsc3-c3sc4c5c(sc4c32)-c2sccc2C5(c2ccccc2)c2ccccc2)cc1']","[0, 0, 0, 0, 0, 0, 3, 5, 6, 29, 8, 1, 9, 15, 11, 12, 88]"
PBDB-T,TTIC-F,-5.297714285714285,-3.4170000000000003,-5.34,-3.88,1.0,CB,_,25,9.38,9.51,0.71,63.0,"['CCCCC(C)CC', 'Cc1cccs1', 'c1ccsc1', 'O=C1c2cscc2C(=O)c2cscc21', 'Cc1cc2cc3sccc3cc2s1']","['N#CCC#N', 'O=C1CCc2ccc(F)cc21', 'C', 'CCCCCC', 'c1ccc(C2(c3ccccc3)c3ccsc3-c3sc4c5c(sc4c32)-c2sccc2C5(c2ccccc2)c2ccccc2)cc1']","['CCCCC(C)CC', 'Cc1cccs1', 'c1ccsc1', 'O=C1c2cscc2C(=O)c2cscc21', 'Cc1cc2cc3sccc3cc2s1', '.', 'N#CCC#N', 'O=C1CCc2ccc(F)cc21', 'C', 'CCCCCC', 'c1ccc(C2(c3ccccc3)c3ccsc3-c3sc4c5c(sc4c32)-c2sccc2C5(c2ccccc2)c2ccccc2)cc1']","[0, 0, 0, 0, 0, 0, 3, 5, 6, 29, 8, 1, 9, 60, 11, 12, 88]"
J71,ITIC,-5.353333333333333,-3.4318181818181825,-5.574146341463415,-3.915,0.8,CB,_,25,9.03,9.05,0.96,63.63,"['CCCCCCCCC(C)CCCCCC', 'Cc1cccs1', 'CCC[Si](CCC)(CCC)c1cccs1', 'c1ccsc1', 'Fc1cc2nnnc2cc1F', 'Cc1cc2cc3sccc3cc2s1']","['N#CCC#N', 'O=C1CCc2ccccc21', 'C', 'CCCCCC', 'c1ccc(C2(c3ccccc3)c3cc4c(cc3-c3sc5ccsc5c32)C(c2ccccc2)(c2ccccc2)c2c-4sc3ccsc23)cc1']","['CCCCCCCCC(C)CCCCCC', 'Cc1cccs1', 'CCC[Si](CCC)(CCC)c1cccs1', 'c1ccsc1', 'Fc1cc2nnnc2cc1F', 'Cc1cc2cc3sccc3cc2s1', '.', 'N#CCC#N', 'O=C1CCc2ccccc21', 'C', 'CCCCCC', 'c1ccc(C2(c3ccccc3)c3cc4c(cc3-c3sc5ccsc5c32)C(c2ccccc2)(c2ccccc2)c2c-4sc3ccsc23)cc1']","[0, 0, 0, 0, 0, 16, 5, 17, 6, 18, 8, 1, 9, 10, 11, 12, 14]"
FTAZ,ITIC,-5.43,-3.3200000000000003,-5.574146341463415,-3.915,0.667,CF,_,25,8.77,8.83,0.911,58.0,"['CCCCCCC(C)CCCC', 'S', 'Cc1cc2cc3sccc3cc2s1', 'Cc1cccs1', 'c1ccsc1', 'Fc1cc2nn(S)nc2cc1F']","['N#CCC#N', 'O=C1CCc2ccccc21', 'C', 'CCCCCC', 'c1ccc(C2(c3ccccc3)c3cc4c(cc3-c3sc5ccsc5c32)C(c2ccccc2)(c2ccccc2)c2c-4sc3ccsc23)cc1']","['CCCCCCC(C)CCCC', 'S', 'Cc1cc2cc3sccc3cc2s1', 'Cc1cccs1', 'c1ccsc1', 'Fc1cc2nn(S)nc2cc1F', '.', 'N#CCC#N', 'O=C1CCc2ccccc21', 'C', 'CCCCCC', 'c1ccc(C2(c3ccccc3)c3cc4c(cc3-c3sc5ccsc5c32)C(c2ccccc2)(c2ccccc2)c2c-4sc3ccsc23)cc1']","[0, 0, 0, 0, 0, 32, 24, 8, 5, 6, 57, 1, 9, 10, 11, 12, 14]"
HTAZ,ITIC,-5.42,-3.44,-5.574146341463415,-3.915,0.667,CF,_,25,4.5,4.52,0.851,40.8,"['CCCCCCC(C)CCCC', 'CCCCCCC(CS)CCCC', 'S', 'Cc1cc2cc3sccc3cc2s1', 'Cc1cccs1', 'c1ccsc1', 'Sn1nc2ccccc2n1']","['N#CCC#N', 'O=C1CCc2ccccc21', 'C', 'CCCCCC', 'c1ccc(C2(c3ccccc3)c3cc4c(cc3-c3sc5ccsc5c32)C(c2ccccc2)(c2ccccc2)c2c-4sc3ccsc23)cc1']","['CCCCCCC(C)CCCC', 'CCCCCCC(CS)CCCC', 'S', 'Cc1cc2cc3sccc3cc2s1', 'Cc1cccs1', 'c1ccsc1', 'Sn1nc2ccccc2n1', '.', 'N#CCC#N', 'O=C1CCc2ccccc21', 'C', 'CCCCCC', 'c1ccc(C2(c3ccccc3)c3cc4c(cc3-c3sc5ccsc5c32)C(c2ccccc2)(c2ccccc2)c2c-4sc3ccsc23)cc1']","[0, 0, 0, 0, 32, 51, 24, 8, 5, 6, 223, 1, 9, 10, 11, 12, 14]"
PTB7-Th,IFT-ECA,-5.204782608695651,-3.5391891891891896,-5.62,-3.58,0.667,DCB,CN,25,0.03,0.04,0.76,23.6,"['O', 'CCCCC(C)CC', 'C=O', 'CCCCC(C)CC', 'Cc1scc2scc(F)c12', 'c1ccsc1', 'Cc1cc2cc3sccc3cc2s1']","['O', 'CC', 'N#CCC=O', 'C', 'c1ccsc1', 'CCCCCCC1(CCCCCC)c2ccccc2-c2cc3c(cc21)-c1ccccc1C3(CCCCCC)CCCCCC']","['O', 'CCCCC(C)CC', 'C=O', 'CCCCC(C)CC', 'Cc1scc2scc(F)c12', 'c1ccsc1', 'Cc1cc2cc3sccc3cc2s1', '.', 'O', 'CC', 'N#CCC=O', 'C', 'c1ccsc1', 'CCCCCCC1(CCCCCC)c2ccccc2-c2cc3c(cc21)-c1ccccc1C3(CCCCCC)CCCCCC']","[0, 0, 0, 2, 3, 4, 3, 33, 6, 8, 1, 2, 21, 91, 11, 6, 218]"
PTB7-Th,IFT-M,-5.204782608695651,-3.5391891891891896,-5.83,-3.65,0.667,DCB,CN,25,0.15,0.15,0.76,24.9,"['O', 'CCCCC(C)CC', 'C=O', 'CCCCC(C)CC', 'Cc1scc2scc(F)c12', 'c1ccsc1', 'Cc1cc2cc3sccc3cc2s1']","['N#CCC#N', 'C', 'c1ccsc1', 'CCCCCCC1(CCCCCC)c2ccccc2-c2cc3c(cc21)-c1ccccc1C3(CCCCCC)CCCCCC']","['O', 'CCCCC(C)CC', 'C=O', 'CCCCC(C)CC', 'Cc1scc2scc(F)c12', 'c1ccsc1', 'Cc1cc2cc3sccc3cc2s1', '.', 'N#CCC#N', 'C', 'c1ccsc1', 'CCCCCCC1(CCCCCC)c2ccccc2-c2cc3c(cc21)-c1ccccc1C3(CCCCCC)CCCCCC']","[0, 0, 0, 0, 0, 2, 3, 4, 3, 33, 6, 8, 1, 9, 11, 6, 218]"
PTB7-Th,IFT-IC,-5.204782608695651,-3.5391891891891896,-5.7,-3.87,0.667,DCB,CN,25,4.14,4.14,1.03,50.3,"['O', 'CCCCC(C)CC', 'C=O', 'CCCCC(C)CC', 'Cc1scc2scc(F)c12', 'c1ccsc1', 'Cc1cc2cc3sccc3cc2s1']","['N#CCC#N', 'O=C1CCc2ccccc21', 'C', 'c1ccsc1', 'CCCCCCC1(CCCCCC)c2ccccc2-c2cc3c(cc21)-c1ccccc1C3(CCCCCC)CCCCCC']","['O', 'CCCCC(C)CC', 'C=O', 'CCCCC(C)CC', 'Cc1scc2scc(F)c12', 'c1ccsc1', 'Cc1cc2cc3sccc3cc2s1', '.', 'N#CCC#N', 'O=C1CCc2ccccc21', 'C', 'c1ccsc1', 'CCCCCCC1(CCCCCC)c2ccccc2-c2cc3c(cc21)-c1ccccc1C3(CCCCCC)CCCCCC']","[0, 0, 0, 0, 2, 3, 4, 3, 33, 6, 8, 1, 9, 10, 11, 6, 218]"
PTB7-Th,IFT-TH,-5.204782608695651,-3.5391891891891896,-5.85,-3.67,0.667,DCB,CN,25,7.16,7.15,0.9,60.2,"['O', 'CCCCC(C)CC', 'C=O', 'CCCCC(C)CC', 'Cc1scc2scc(F)c12', 'c1ccsc1', 'Cc1cc2cc3sccc3cc2s1']","['CC', 'C', 'O=C1CC(=O)NC(=S)N1', 'c1ccsc1', 'CCCCCCC1(CCCCCC)c2ccccc2-c2cc3c(cc21)-c1ccccc1C3(CCCCCC)CCCCCC']","['O', 'CCCCC(C)CC', 'C=O', 'CCCCC(C)CC', 'Cc1scc2scc(F)c12', 'c1ccsc1', 'Cc1cc2cc3sccc3cc2s1', '.', 'CC', 'C', 'O=C1CC(=O)NC(=S)N1', 'c1ccsc1', 'CCCCCCC1(CCCCCC)c2ccccc2-c2cc3c(cc21)-c1ccccc1C3(CCCCCC)CCCCCC']","[0, 0, 0, 0, 2, 3, 4, 3, 33, 6, 8, 1, 21, 11, 122, 6, 218]"
PBDB-T,IT-M,-5.297714285714285,-3.4170000000000003,-5.513571428571429,-3.808,1.0,CB,DIO,25,11.5,11.23,0.961,70.0,"['CCCCC(C)CC', 'Cc1cccs1', 'c1ccsc1', 'O=C1c2cscc2C(=O)c2cscc21', 'Cc1cc2cc3sccc3cc2s1']","['N#CCC#N', 'Cc1ccc2c(c1)CCC2=O', 'C', 'CCCCCC', 'c1ccc(C2(c3ccccc3)c3cc4c(cc3-c3sc5ccsc5c32)C(c2ccccc2)(c2ccccc2)c2c-4sc3ccsc23)cc1']","['CCCCC(C)CC', 'Cc1cccs1', 'c1ccsc1', 'O=C1c2cscc2C(=O)c2cscc21', 'Cc1cc2cc3sccc3cc2s1', '.', 'N#CCC#N', 'Cc1ccc2c(c1)CCC2=O', 'C', 'CCCCCC', 'c1ccc(C2(c3ccccc3)c3cc4c(cc3-c3sc5ccsc5c32)C(c2ccccc2)(c2ccccc2)c2c-4sc3ccsc23)cc1']","[0, 0, 0, 0, 0, 0, 3, 5, 6, 29, 8, 1, 9, 15, 11, 12, 14]"
PTB7-Th,ITIC,-5.204782608695651,-3.5391891891891896,-5.574146341463415,-3.915,0.8,CB,_,25,7.28,7.18,0.83,57.0,"['O', 'CCCCC(C)CC', 'C=O', 'CCCCC(C)CC', 'Cc1scc2scc(F)c12', 'c1ccsc1', 'Cc1cc2cc3sccc3cc2s1']","['N#CCC#N', 'O=C1CCc2ccccc21', 'C', 'CCCCCC', 'c1ccc(C2(c3ccccc3)c3cc4c(cc3-c3sc5ccsc5c32)C(c2ccccc2)(c2ccccc2)c2c-4sc3ccsc23)cc1']","['O', 'CCCCC(C)CC', 'C=O', 'CCCCC(C)CC', 'Cc1scc2scc(F)c12', 'c1ccsc1', 'Cc1cc2cc3sccc3cc2s1', '.', 'N#CCC#N', 'O=C1CCc2ccccc21', 'C', 'CCCCCC', 'c1ccc(C2(c3ccccc3)c3cc4c(cc3-c3sc5ccsc5c32)C(c2ccccc2)(c2ccccc2)c2c-4sc3ccsc23)cc1']","[0, 0, 0, 0, 2, 3, 4, 3, 33, 6, 8, 1, 9, 10, 11, 12, 14]"
TBF-BDD,ITIC,-5.37,-3.65,-5.574146341463415,-3.915,1.0,CF,_,110,7.13,7.11,0.85,56.0,"['CCCCC(C)CC', 'O', 'CCCCC(C)CC', 'Cc1cccs1', 'O=C1c2cscc2C(=O)c2cscc21', 'c1ccsc1', 'c1ccccc1', 'Cc1cc2cc3sccc3cc2o1']","['N#CCC#N', 'O=C1CCc2ccccc21', 'C', 'CCCCCC', 'c1ccc(C2(c3ccccc3)c3cc4c(cc3-c3sc5ccsc5c32)C(c2ccccc2)(c2ccccc2)c2c-4sc3ccsc23)cc1']","['CCCCC(C)CC', 'O', 'CCCCC(C)CC', 'Cc1cccs1', 'O=C1c2cscc2C(=O)c2cscc21', 'c1ccsc1', 'c1ccccc1', 'Cc1cc2cc3sccc3cc2o1', '.', 'N#CCC#N', 'O=C1CCc2ccccc21', 'C', 'CCCCCC', 'c1ccc(C2(c3ccccc3)c3cc4c(cc3-c3sc5ccsc5c32)C(c2ccccc2)(c2ccccc2)c2c-4sc3ccsc23)cc1']","[0, 0, 0, 3, 2, 3, 5, 29, 6, 56, 188, 1, 9, 10, 11, 12, 14]"
TBF-BT,ITIC,-5.4,-3.55,-5.574146341463415,-3.915,1.0,CF,_,110,7.03,7.09,0.81,63.0,"['CCCCCCCC', 'CCCCC(C)CC', 'O', 'Cc1cccs1', 'c1ccsc1', 'c1ccc2nsnc2c1', 'c1ccccc1', 'Cc1cc2cc3sccc3cc2o1']","['N#CCC#N', 'O=C1CCc2ccccc21', 'C', 'CCCCCC', 'c1ccc(C2(c3ccccc3)c3cc4c(cc3-c3sc5ccsc5c32)C(c2ccccc2)(c2ccccc2)c2c-4sc3ccsc23)cc1']","['CCCCCCCC', 'CCCCC(C)CC', 'O', 'Cc1cccs1', 'c1ccsc1', 'c1ccc2nsnc2c1', 'c1ccccc1', 'Cc1cc2cc3sccc3cc2o1', '.', 'N#CCC#N', 'O=C1CCc2ccccc21', 'C', 'CCCCCC', 'c1ccc(C2(c3ccccc3)c3cc4c(cc3-c3sc5ccsc5c32)C(c2ccccc2)(c2ccccc2)c2c-4sc3ccsc23)cc1']","[0, 0, 0, 20, 3, 2, 5, 6, 34, 56, 188, 1, 9, 10, 11, 12, 14]"
PBT,CzC6C8,-5.43,-3.65,-5.79,-3.79,0.333,CB,_,130,3.3,3.34,0.99,41.0,"['OS', 'CCCCCCCCCCCC', 'CCCCC(C)CC', 'S', 'Cc1cccs1', 'c1ccsc1', 'c1ccc2nsnc2c1', 'c1ccccc1', 'Cc1cc2cc3sccc3cc2s1']","['CC', 'O=C1CSC(=S)N1', 'CCCCCCCCC(C)CCCCCC', 'C', 'c1ccc2nsnc2c1', 'c1ccc2c(c1)nc1ccccc12']","['OS', 'CCCCCCCCCCCC', 'CCCCC(C)CC', 'S', 'Cc1cccs1', 'c1ccsc1', 'c1ccc2nsnc2c1', 'c1ccccc1', 'Cc1cc2cc3sccc3cc2s1', '.', 'CC', 'O=C1CSC(=S)N1', 'CCCCCCCCC(C)CCCCCC', 'C', 'c1ccc2nsnc2c1', 'c1ccc2c(c1)nc1ccccc12']","[0, 31, 25, 3, 24, 5, 6, 34, 56, 8, 1, 21, 69, 16, 11, 34, 224]"