Donor,Acceptor,HOMO_D_eV,LUMO_D_eV,HOMO_A_eV,LUMO_A_eV,D_A_ratio_m_m,solvent,solvent_additive,annealing_temperature,PCE_percent,calc_PCE_percent,Voc_V,FF_percent,Donor_BRICS,Acceptor_BRICS,DA_pair_BRICS,DA_tokenized_BRICS
PBDTS-FBT,ITIC,-5.2,-3.4,-5.574146341463415,-3.915,1.0,CB,DIO,25.0,8.58,8.58,0.89,65.9,"['[4*]CC(CCCC)CCCCCC', '[8*]CCCCCCCC', '[11*]SS[11*]', '[14*]c1ccc([14*])s1', '[14*]c1cc([16*])c(C)s1', '[14*]c1cc([16*])c([14*])s1', '[16*]c1c(F)c(F)c([16*])c2nsnc12', '[14*]c1cc2c([16*])c3sc(C)cc3c([16*])c2s1']","['[7*]C(C#N)C#N', '[7*]C1C(=O)c2ccccc2C1[7*]', '[7*]C[8*]', '[8*]CCCCCC', '[14*]c1cc2sc3c(c2s1)C(c1ccc([16*])cc1)(c1ccc([16*])cc1)c1cc2c(cc1-3)C(c1ccc([16*])cc1)(c1ccc([16*])cc1)c1c-2sc2cc([14*])sc12']","['[4*]CC(CCCC)CCCCCC', '[8*]CCCCCCCC', '[11*]SS[11*]', '[14*]c1ccc([14*])s1', '[14*]c1cc([16*])c(C)s1', '[14*]c1cc([16*])c([14*])s1', '[16*]c1c(F)c(F)c([16*])c2nsnc12', '[14*]c1cc2c([16*])c3sc(C)cc3c([16*])c2s1', '.', '[7*]C(C#N)C#N', '[7*]C1C(=O)c2ccccc2C1[7*]', '[7*]C[8*]', '[8*]CCCCCC', '[14*]c1cc2sc3c(c2s1)C(c1ccc([16*])cc1)(c1ccc([16*])cc1)c1cc2c(cc1-3)C(c1ccc([16*])cc1)(c1ccc([16*])cc1)c1c-2sc2cc([14*])sc12']","[0, 0, 0, 33, 21, 27, 7, 57, 34, 59, 9, 1, 10, 11, 12, 13, 15]"
PBDTSF-FBT,ITIC,-5.41,-3.6,-5.574146341463415,-3.915,1.0,CB,DIO,25.0,11.66,11.67,1.03,66.3,"['[4*]CC(CCCC)CCCCCC', '[8*]CCCCCCCC', '[11*]SS[11*]', '[14*]c1cc(F)c([14*])s1', '[14*]c1cc([16*])c(C)s1', '[14*]c1cc([16*])c([14*])s1', '[16*]c1c(F)c(F)c([16*])c2nsnc12', '[14*]c1cc2c([16*])c3sc(C)cc3c([16*])c2s1']","['[7*]C(C#N)C#N', '[7*]C1C(=O)c2ccccc2C1[7*]', '[7*]C[8*]', '[8*]CCCCCC', '[14*]c1cc2sc3c(c2s1)C(c1ccc([16*])cc1)(c1ccc([16*])cc1)c1cc2c(cc1-3)C(c1ccc([16*])cc1)(c1ccc([16*])cc1)c1c-2sc2cc([14*])sc12']","['[4*]CC(CCCC)CCCCCC', '[8*]CCCCCCCC', '[11*]SS[11*]', '[14*]c1cc(F)c([14*])s1', '[14*]c1cc([16*])c(C)s1', '[14*]c1cc([16*])c([14*])s1', '[16*]c1c(F)c(F)c([16*])c2nsnc12', '[14*]c1cc2c([16*])c3sc(C)cc3c([16*])c2s1', '.', '[7*]C(C#N)C#N', '[7*]C1C(=O)c2ccccc2C1[7*]', '[7*]C[8*]', '[8*]CCCCCC', '[14*]c1cc2sc3c(c2s1)C(c1ccc([16*])cc1)(c1ccc([16*])cc1)c1cc2c(cc1-3)C(c1ccc([16*])cc1)(c1ccc([16*])cc1)c1c-2sc2cc([14*])sc12']","[0, 0, 0, 33, 21, 27, 24, 57, 34, 59, 9, 1, 10, 11, 12, 13, 15]"
PBDT-NQx,ITIC,-5.24,-3.42,-5.574146341463415,-3.915,1.25,CB,DIO,25.0,9.11,9.11,0.87,64.6,"['[4*]CC(CCCC)CCCCCC', '[8*]CCCCCCCC', '[11*]S[11*]', '[14*]c1ccc([14*])s1', '[14*]c1ccc(C)s1', '[14*]c1cc2c([16*])c3sc(C)cc3c([16*])c2s1', '[14*]c1nc2c([16*])cc3c(cc([16*])c4nc([14*])c([14*])nc43)c2nc1[14*]']","['[7*]C(C#N)C#N', '[7*]C1C(=O)c2ccccc2C1[7*]', '[7*]C[8*]', '[8*]CCCCCC', '[14*]c1cc2sc3c(c2s1)C(c1ccc([16*])cc1)(c1ccc([16*])cc1)c1cc2c(cc1-3)C(c1ccc([16*])cc1)(c1ccc([16*])cc1)c1c-2sc2cc([14*])sc12']","['[4*]CC(CCCC)CCCCCC', '[8*]CCCCCCCC', '[11*]S[11*]', '[14*]c1ccc([14*])s1', '[14*]c1ccc(C)s1', '[14*]c1cc2c([16*])c3sc(C)cc3c([16*])c2s1', '[14*]c1nc2c([16*])cc3c(cc([16*])c4nc([14*])c([14*])nc43)c2nc1[14*]', '.', '[7*]C(C#N)C#N', '[7*]C1C(=O)c2ccccc2C1[7*]', '[7*]C[8*]', '[8*]CCCCCC', '[14*]c1cc2sc3c(c2s1)C(c1ccc([16*])cc1)(c1ccc([16*])cc1)c1cc2c(cc1-3)C(c1ccc([16*])cc1)(c1ccc([16*])cc1)c1c-2sc2cc([14*])sc12']","[0, 0, 0, 0, 33, 21, 25, 7, 6, 9, 61, 1, 10, 11, 12, 13, 15]"
PBDTS-NQx,ITIC,-5.31,-3.46,-5.574146341463415,-3.915,1.25,CB,DIO,25.0,11.47,11.47,0.92,69.8,"['[4*]CC(CCCC)CCCCCC', '[8*]CCCCCCCC', '[11*]SS[11*]', '[14*]c1ccc([14*])s1', '[14*]c1ccc(C)s1', '[14*]c1cc2c([16*])c3sc(C)cc3c([16*])c2s1', '[14*]c1nc2c([16*])cc3c(cc([16*])c4nc([14*])c([14*])nc43)c2nc1[14*]']","['[7*]C(C#N)C#N', '[7*]C1C(=O)c2ccccc2C1[7*]', '[7*]C[8*]', '[8*]CCCCCC', '[14*]c1cc2sc3c(c2s1)C(c1ccc([16*])cc1)(c1ccc([16*])cc1)c1cc2c(cc1-3)C(c1ccc([16*])cc1)(c1ccc([16*])cc1)c1c-2sc2cc([14*])sc12']","['[4*]CC(CCCC)CCCCCC', '[8*]CCCCCCCC', '[11*]SS[11*]', '[14*]c1ccc([14*])s1', '[14*]c1ccc(C)s1', '[14*]c1cc2c([16*])c3sc(C)cc3c([16*])c2s1', '[14*]c1nc2c([16*])cc3c(cc([16*])c4nc([14*])c([14*])nc43)c2nc1[14*]', '.', '[7*]C(C#N)C#N', '[7*]C1C(=O)c2ccccc2C1[7*]', '[7*]C[8*]', '[8*]CCCCCC', '[14*]c1cc2sc3c(c2s1)C(c1ccc([16*])cc1)(c1ccc([16*])cc1)c1cc2c(cc1-3)C(c1ccc([16*])cc1)(c1ccc([16*])cc1)c1c-2sc2cc([14*])sc12']","[0, 0, 0, 0, 33, 21, 27, 7, 6, 9, 61, 1, 10, 11, 12, 13, 15]"
PBDTS-TDZ,ITIC,-5.39,-2.8,-5.574146341463415,-3.915,1.0,o-xylene,_,25.0,12.8,12.79,1.1,65.4,"['[4*]CC(CCCC)CCCCCC', '[8*]CCCCCCCC', '[11*]SS[11*]', '[14*]c1cc([16*])c(C)s1', '[14*]c1ccc([14*])s1', '[14*]c1cc([16*])c([14*])s1', '[14*]c1nnc([14*])s1', '[14*]c1cc2c([16*])c3sc(C)cc3c([16*])c2s1']","['[7*]C(C#N)C#N', '[7*]C1C(=O)c2ccccc2C1[7*]', '[7*]C[8*]', '[8*]CCCCCC', '[14*]c1cc2sc3c(c2s1)C(c1ccc([16*])cc1)(c1ccc([16*])cc1)c1cc2c(cc1-3)C(c1ccc([16*])cc1)(c1ccc([16*])cc1)c1c-2sc2cc([14*])sc12']","['[4*]CC(CCCC)CCCCCC', '[8*]CCCCCCCC', '[11*]SS[11*]', '[14*]c1cc([16*])c(C)s1', '[14*]c1ccc([14*])s1', '[14*]c1cc([16*])c([14*])s1', '[14*]c1nnc([14*])s1', '[14*]c1cc2c([16*])c3sc(C)cc3c([16*])c2s1', '.', '[7*]C(C#N)C#N', '[7*]C1C(=O)c2ccccc2C1[7*]', '[7*]C[8*]', '[8*]CCCCCC', '[14*]c1cc2sc3c(c2s1)C(c1ccc([16*])cc1)(c1ccc([16*])cc1)c1cc2c(cc1-3)C(c1ccc([16*])cc1)(c1ccc([16*])cc1)c1c-2sc2cc([14*])sc12']","[0, 0, 0, 33, 21, 27, 57, 7, 34, 62, 9, 1, 10, 11, 12, 13, 15]"
PBFZ-OP,ITIC,-5.33,-3.01,-5.574146341463415,-3.915,1.0,CF,_,160.0,10.5,10.52,0.91,61.8,"['[4*]CC(CC)CCCC', '[3*]O[3*]', '[8*]CC(CCCCCC)CCCCCCCC', '[14*]c1ccc(C)s1', '[14*]c1ccc([14*])s1', '[9*]n1nc2c([16*])c(F)c(F)c([16*])c2n1', '[16*]c1cccc([16*])c1', '[14*]c1cc2c([16*])c3sc(C)cc3c([16*])c2s1']","['[7*]C(C#N)C#N', '[7*]C1C(=O)c2ccccc2C1[7*]', '[7*]C[8*]', '[8*]CCCCCC', '[14*]c1cc2sc3c(c2s1)C(c1ccc([16*])cc1)(c1ccc([16*])cc1)c1cc2c(cc1-3)C(c1ccc([16*])cc1)(c1ccc([16*])cc1)c1c-2sc2cc([14*])sc12']","['[4*]CC(CC)CCCC', '[3*]O[3*]', '[8*]CC(CCCCCC)CCCCCCCC', '[14*]c1ccc(C)s1', '[14*]c1ccc([14*])s1', '[9*]n1nc2c([16*])c(F)c(F)c([16*])c2n1', '[16*]c1cccc([16*])c1', '[14*]c1cc2c([16*])c3sc(C)cc3c([16*])c2s1', '.', '[7*]C(C#N)C#N', '[7*]C1C(=O)c2ccccc2C1[7*]', '[7*]C[8*]', '[8*]CCCCCC', '[14*]c1cc2sc3c(c2s1)C(c1ccc([16*])cc1)(c1ccc([16*])cc1)c1cc2c(cc1-3)C(c1ccc([16*])cc1)(c1ccc([16*])cc1)c1c-2sc2cc([14*])sc12']","[0, 0, 0, 3, 2, 17, 6, 7, 19, 63, 9, 1, 10, 11, 12, 13, 15]"
J71,ITIC5,-5.353333333333333,-3.4318181818181825,-5.48,-3.95,1.0,CF,_,100.0,12.2,12.23,0.892,74.7,"['[8*]CC(CCCCCC)CCCCCCCC', '[14*]c1ccc(C)s1', '[14*]c1ccc([Si](CCC)(CCC)CCC)s1', '[14*]c1ccc([14*])s1', '[9*]n1nc2c([16*])c(F)c(F)c([16*])c2n1', '[14*]c1cc2c([16*])c3sc(C)cc3c([16*])c2s1']","['[7*]C(C#N)C#N', '[7*]C1C(=O)c2cscc2C1[7*]', '[7*]C[8*]', '[8*]CCCCCC', '[14*]c1cc2c(s1)-c1sc3cc4c5c(sc4cc3c1C2(c1ccc([16*])cc1)c1ccc([16*])cc1)-c1sc([14*])cc1C5(c1ccc([16*])cc1)c1ccc([16*])cc1']","['[8*]CC(CCCCCC)CCCCCCCC', '[14*]c1ccc(C)s1', '[14*]c1ccc([Si](CCC)(CCC)CCC)s1', '[14*]c1ccc([14*])s1', '[9*]n1nc2c([16*])c(F)c(F)c([16*])c2n1', '[14*]c1cc2c([16*])c3sc(C)cc3c([16*])c2s1', '.', '[7*]C(C#N)C#N', '[7*]C1C(=O)c2cscc2C1[7*]', '[7*]C[8*]', '[8*]CCCCCC', '[14*]c1cc2c(s1)-c1sc3cc4c5c(sc4cc3c1C2(c1ccc([16*])cc1)c1ccc([16*])cc1)-c1sc([14*])cc1C5(c1ccc([16*])cc1)c1ccc([16*])cc1']","[0, 0, 0, 0, 0, 17, 6, 18, 7, 19, 9, 1, 10, 44, 12, 13, 65]"
PBDT-ODZ,ITIC-Th,-5.68,-2.89,-5.673333333333334,-3.908888888888889,1.0,CB,_,25.0,10.12,10.12,1.08,60.4,"['[8*]CC(CCCCCC)CCCCCCCC', '[8*]CCCCCCCC', '[14*]c1cc([16*])c(C)s1', '[14*]c1ccc([14*])s1', '[14*]c1nnc([14*])o1', '[14*]c1cc([16*])c([14*])s1', '[14*]c1cc2c([16*])c3sc(C)cc3c([16*])c2s1']","['[7*]C(C#N)C#N', '[7*]C1C(=O)c2ccccc2C1[7*]', '[7*]C[8*]', '[8*]CCCCCC', '[14*]c1ccc(C2(c3ccc([14*])s3)c3cc4c(cc3-c3sc5cc([14*])sc5c32)C(c2ccc([14*])s2)(c2ccc([14*])s2)c2c-4sc3cc([14*])sc23)s1']","['[8*]CC(CCCCCC)CCCCCCCC', '[8*]CCCCCCCC', '[14*]c1cc([16*])c(C)s1', '[14*]c1ccc([14*])s1', '[14*]c1nnc([14*])o1', '[14*]c1cc([16*])c([14*])s1', '[14*]c1cc2c([16*])c3sc(C)cc3c([16*])c2s1', '.', '[7*]C(C#N)C#N', '[7*]C1C(=O)c2ccccc2C1[7*]', '[7*]C[8*]', '[8*]CCCCCC', '[14*]c1ccc(C2(c3ccc([14*])s3)c3cc4c(cc3-c3sc5cc([14*])sc5c32)C(c2ccc([14*])s2)(c2ccc([14*])s2)c2c-4sc3cc([14*])sc23)s1']","[0, 0, 0, 0, 17, 21, 57, 7, 66, 34, 9, 1, 10, 11, 12, 13, 67]"
FTAZ,ITIC-Th,-5.43,-3.3200000000000003,-5.673333333333334,-3.908888888888889,0.667,CF,DIO,25.0,8.88,8.88,0.915,61.26,"['[4*]CC(CCCC)CCCCCC', '[11*]S[11*]', '[14*]c1cc2c([16*])c3sc(C)cc3c([16*])c2s1', '[14*]c1ccc(C)s1', '[14*]c1ccc([14*])s1', '[11*]Sn1nc2c([16*])c(F)c(F)c([16*])c2n1']","['[7*]C(C#N)C#N', '[7*]C1C(=O)c2ccccc2C1[7*]', '[7*]C[8*]', '[8*]CCCCCC', '[14*]c1ccc(C2(c3ccc([14*])s3)c3cc4c(cc3-c3sc5cc([14*])sc5c32)C(c2ccc([14*])s2)(c2ccc([14*])s2)c2c-4sc3cc([14*])sc23)s1']","['[4*]CC(CCCC)CCCCCC', '[11*]S[11*]', '[14*]c1cc2c([16*])c3sc(C)cc3c([16*])c2s1', '[14*]c1ccc(C)s1', '[14*]c1ccc([14*])s1', '[11*]Sn1nc2c([16*])c(F)c(F)c([16*])c2n1', '.', '[7*]C(C#N)C#N', '[7*]C1C(=O)c2ccccc2C1[7*]', '[7*]C[8*]', '[8*]CCCCCC', '[14*]c1ccc(C2(c3ccc([14*])s3)c3cc4c(cc3-c3sc5cc([14*])sc5c32)C(c2ccc([14*])s2)(c2ccc([14*])s2)c2c-4sc3cc([14*])sc23)s1']","[0, 0, 0, 0, 0, 33, 25, 9, 6, 7, 64, 1, 10, 11, 12, 13, 67]"
FTAZ,ITIC-Th1,-5.43,-3.3200000000000003,-5.720000000000001,-4.065,0.667,CF,DIO,25.0,12.1,12.1,0.849,73.73,"['[4*]CC(CCCC)CCCCCC', '[11*]S[11*]', '[14*]c1cc2c([16*])c3sc(C)cc3c([16*])c2s1', '[14*]c1ccc(C)s1', '[14*]c1ccc([14*])s1', '[11*]Sn1nc2c([16*])c(F)c(F)c([16*])c2n1']","['[7*]C(C#N)C#N', '[7*]C1C(=O)c2cc(F)ccc2C1[7*]', '[7*]C[8*]', '[8*]CCCCCC', '[14*]c1ccc(C2(c3ccc([14*])s3)c3cc4c(cc3-c3sc5cc([14*])sc5c32)C(c2ccc([14*])s2)(c2ccc([14*])s2)c2c-4sc3cc([14*])sc23)s1']","['[4*]CC(CCCC)CCCCCC', '[11*]S[11*]', '[14*]c1cc2c([16*])c3sc(C)cc3c([16*])c2s1', '[14*]c1ccc(C)s1', '[14*]c1ccc([14*])s1', '[11*]Sn1nc2c([16*])c(F)c(F)c([16*])c2n1', '.', '[7*]C(C#N)C#N', '[7*]C1C(=O)c2cc(F)ccc2C1[7*]', '[7*]C[8*]', '[8*]CCCCCC', '[14*]c1ccc(C2(c3ccc([14*])s3)c3cc4c(cc3-c3sc5cc([14*])sc5c32)C(c2ccc([14*])s2)(c2ccc([14*])s2)c2c-4sc3cc([14*])sc23)s1']","[0, 0, 0, 0, 0, 33, 25, 9, 6, 7, 64, 1, 10, 68, 12, 13, 67]"
FTAZ,ITIC-Th2,-5.43,-3.3200000000000003,-5.75,-4.07,0.667,CF,DIO,25.0,9.06,9.05,0.751,70.07,"['[4*]CC(CCCC)CCCCCC', '[11*]S[11*]', '[14*]c1cc2c([16*])c3sc(C)cc3c([16*])c2s1', '[14*]c1ccc(C)s1', '[14*]c1ccc([14*])s1', '[11*]Sn1nc2c([16*])c(F)c(F)c([16*])c2n1']","['[7*]C(C#N)C#N', '[7*]C1C(=O)c2cc(F)c(F)cc2C1[7*]', '[7*]C[8*]', '[8*]CCCCCC', '[14*]c1ccc(C2(c3ccc([14*])s3)c3cc4c(cc3-c3sc5cc([14*])sc5c32)C(c2ccc([14*])s2)(c2ccc([14*])s2)c2c-4sc3cc([14*])sc23)s1']","['[4*]CC(CCCC)CCCCCC', '[11*]S[11*]', '[14*]c1cc2c([16*])c3sc(C)cc3c([16*])c2s1', '[14*]c1ccc(C)s1', '[14*]c1ccc([14*])s1', '[11*]Sn1nc2c([16*])c(F)c(F)c([16*])c2n1', '.', '[7*]C(C#N)C#N', '[7*]C1C(=O)c2cc(F)c(F)cc2C1[7*]', '[7*]C[8*]', '[8*]CCCCCC', '[14*]c1ccc(C2(c3ccc([14*])s3)c3cc4c(cc3-c3sc5cc([14*])sc5c32)C(c2ccc([14*])s2)(c2ccc([14*])s2)c2c-4sc3cc([14*])sc23)s1']","[0, 0, 0, 0, 0, 33, 25, 9, 6, 7, 64, 1, 10, 42, 12, 13, 67]"
FTAZ,ITIC-Th3,-5.43,-3.3200000000000003,-5.67,-3.73,0.667,CF,DIO,25.0,10.7,10.74,0.962,68.33,"['[4*]CC(CCCC)CCCCCC', '[11*]S[11*]', '[14*]c1cc2c([16*])c3sc(C)cc3c([16*])c2s1', '[14*]c1ccc(C)s1', '[14*]c1ccc([14*])s1', '[11*]Sn1nc2c([16*])c(F)c(F)c([16*])c2n1']","['[3*]OC', '[7*]C(C#N)C#N', '[7*]C1C(=O)c2ccc([16*])cc2C1[7*]', '[7*]C[8*]', '[8*]CCCCCC', '[14*]c1ccc(C2(c3ccc([14*])s3)c3cc4c(cc3-c3sc5cc([14*])sc5c32)C(c2ccc([14*])s2)(c2ccc([14*])s2)c2c-4sc3cc([14*])sc23)s1']","['[4*]CC(CCCC)CCCCCC', '[11*]S[11*]', '[14*]c1cc2c([16*])c3sc(C)cc3c([16*])c2s1', '[14*]c1ccc(C)s1', '[14*]c1ccc([14*])s1', '[11*]Sn1nc2c([16*])c(F)c(F)c([16*])c2n1', '.', '[3*]OC', '[7*]C(C#N)C#N', '[7*]C1C(=O)c2ccc([16*])cc2C1[7*]', '[7*]C[8*]', '[8*]CCCCCC', '[14*]c1ccc(C2(c3ccc([14*])s3)c3cc4c(cc3-c3sc5cc([14*])sc5c32)C(c2ccc([14*])s2)(c2ccc([14*])s2)c2c-4sc3cc([14*])sc23)s1']","[0, 0, 0, 0, 33, 25, 9, 6, 7, 64, 1, 69, 10, 70, 12, 13, 67]"
J52,IT-M,-5.218571428571429,-3.341428571428572,-5.513571428571429,-3.808,1.0,CB,DIO,150.0,9.4,9.38,0.843,65.1,"['[8*]CC(CCCCCC)CCCCCCCC', '[8*]CC(CC)CCCC', '[14*]c1ccc([14*])s1', '[14*]c1ccc(C)s1', '[9*]n1nc2c([16*])c(F)c(F)c([16*])c2n1', '[14*]c1cc2c([16*])c3sc(C)cc3c([16*])c2s1']","['[7*]C(C#N)C#N', '[7*]C1C(=O)c2ccc(C)cc2C1[7*]', '[7*]C[8*]', '[8*]CCCCCC', '[14*]c1cc2sc3c(c2s1)C(c1ccc([16*])cc1)(c1ccc([16*])cc1)c1cc2c(cc1-3)C(c1ccc([16*])cc1)(c1ccc([16*])cc1)c1c-2sc2cc([14*])sc12']","['[8*]CC(CCCCCC)CCCCCCCC', '[8*]CC(CC)CCCC', '[14*]c1ccc([14*])s1', '[14*]c1ccc(C)s1', '[9*]n1nc2c([16*])c(F)c(F)c([16*])c2n1', '[14*]c1cc2c([16*])c3sc(C)cc3c([16*])c2s1', '.', '[7*]C(C#N)C#N', '[7*]C1C(=O)c2ccc(C)cc2C1[7*]', '[7*]C[8*]', '[8*]CCCCCC', '[14*]c1cc2sc3c(c2s1)C(c1ccc([16*])cc1)(c1ccc([16*])cc1)c1cc2c(cc1-3)C(c1ccc([16*])cc1)(c1ccc([16*])cc1)c1c-2sc2cc([14*])sc12']","[0, 0, 0, 0, 0, 17, 5, 7, 6, 19, 9, 1, 10, 16, 12, 13, 15]"
J52,IEICO,-5.218571428571429,-3.341428571428572,-5.32,-3.95,1.0,CB,DIO,150.0,6.5,6.53,0.848,51.0,"['[8*]CC(CCCCCC)CCCCCCCC', '[8*]CC(CC)CCCC', '[14*]c1ccc([14*])s1', '[14*]c1ccc(C)s1', '[9*]n1nc2c([16*])c(F)c(F)c([16*])c2n1', '[14*]c1cc2c([16*])c3sc(C)cc3c([16*])c2s1']","['[4*]CC(CC)CCCC', '[3*]O[3*]', '[7*]C(C#N)C#N', '[7*]C1C(=O)c2ccccc2C1[7*]', '[7*]C[8*]', '[8*]CCCCCC', '[14*]c1cc([16*])c([14*])s1', '[14*]c1cc2c(s1)-c1cc3c(cc1C2(c1ccc([16*])cc1)c1ccc([16*])cc1)-c1sc([14*])cc1C3(c1ccc([16*])cc1)c1ccc([16*])cc1']","['[8*]CC(CCCCCC)CCCCCCCC', '[8*]CC(CC)CCCC', '[14*]c1ccc([14*])s1', '[14*]c1ccc(C)s1', '[9*]n1nc2c([16*])c(F)c(F)c([16*])c2n1', '[14*]c1cc2c([16*])c3sc(C)cc3c([16*])c2s1', '.', '[4*]CC(CC)CCCC', '[3*]O[3*]', '[7*]C(C#N)C#N', '[7*]C1C(=O)c2ccccc2C1[7*]', '[7*]C[8*]', '[8*]CCCCCC', '[14*]c1cc([16*])c([14*])s1', '[14*]c1cc2c(s1)-c1cc3c(cc1C2(c1ccc([16*])cc1)c1ccc([16*])cc1)-c1sc([14*])cc1C3(c1ccc([16*])cc1)c1ccc([16*])cc1']","[0, 0, 17, 5, 7, 6, 19, 9, 1, 3, 2, 10, 11, 12, 13, 34, 38]"
J71,ITVffIC,-5.353333333333333,-3.4318181818181825,-5.58,-4.04,0.833,CF,CN,160.0,10.54,10.54,0.81,63.18,"['[8*]CC(CCCCCC)CCCCCCCC', '[14*]c1ccc(C)s1', '[14*]c1ccc([Si](CCC)(CCC)CCC)s1', '[14*]c1ccc([14*])s1', '[9*]n1nc2c([16*])c(F)c(F)c([16*])c2n1', '[14*]c1cc2c([16*])c3sc(C)cc3c([16*])c2s1']","['[7*]C(C#N)C#N', '[7*]CC[7*]', '[7*]C1C(=O)c2cc(F)c(F)cc2C1[7*]', '[7*]C[8*]', '[8*]CCCCCC', '[14*]c1cc2sc3c(c2s1)C(c1ccc([16*])cc1)(c1ccc([16*])cc1)c1cc2c(cc1-3)C(c1ccc([16*])cc1)(c1ccc([16*])cc1)c1c-2sc2cc([14*])sc12']","['[8*]CC(CCCCCC)CCCCCCCC', '[14*]c1ccc(C)s1', '[14*]c1ccc([Si](CCC)(CCC)CCC)s1', '[14*]c1ccc([14*])s1', '[9*]n1nc2c([16*])c(F)c(F)c([16*])c2n1', '[14*]c1cc2c([16*])c3sc(C)cc3c([16*])c2s1', '.', '[7*]C(C#N)C#N', '[7*]CC[7*]', '[7*]C1C(=O)c2cc(F)c(F)cc2C1[7*]', '[7*]C[8*]', '[8*]CCCCCC', '[14*]c1cc2sc3c(c2s1)C(c1ccc([16*])cc1)(c1ccc([16*])cc1)c1cc2c(cc1-3)C(c1ccc([16*])cc1)(c1ccc([16*])cc1)c1c-2sc2cc([14*])sc12']","[0, 0, 0, 0, 17, 6, 18, 7, 19, 9, 1, 10, 39, 42, 12, 13, 15]"
J71,ITVfIC,-5.353333333333333,-3.4318181818181825,-5.56,-4.01,0.833,CF,_,160.0,9.72,9.72,0.84,58.67,"['[8*]CC(CCCCCC)CCCCCCCC', '[14*]c1ccc(C)s1', '[14*]c1ccc([Si](CCC)(CCC)CCC)s1', '[14*]c1ccc([14*])s1', '[9*]n1nc2c([16*])c(F)c(F)c([16*])c2n1', '[14*]c1cc2c([16*])c3sc(C)cc3c([16*])c2s1']","['[7*]C(C#N)C#N', '[7*]C1C(=O)c2cc(F)ccc2C1[7*]', '[7*]C[8*]', '[8*]CCCCCC', '[14*]c1cc2sc3c(c2s1)C(c1ccc([16*])cc1)(c1ccc([16*])cc1)c1cc2c(cc1-3)C(c1ccc([16*])cc1)(c1ccc([16*])cc1)c1c-2sc2cc([14*])sc12']","['[8*]CC(CCCCCC)CCCCCCCC', '[14*]c1ccc(C)s1', '[14*]c1ccc([Si](CCC)(CCC)CCC)s1', '[14*]c1ccc([14*])s1', '[9*]n1nc2c([16*])c(F)c(F)c([16*])c2n1', '[14*]c1cc2c([16*])c3sc(C)cc3c([16*])c2s1', '.', '[7*]C(C#N)C#N', '[7*]C1C(=O)c2cc(F)ccc2C1[7*]', '[7*]C[8*]', '[8*]CCCCCC', '[14*]c1cc2sc3c(c2s1)C(c1ccc([16*])cc1)(c1ccc([16*])cc1)c1cc2c(cc1-3)C(c1ccc([16*])cc1)(c1ccc([16*])cc1)c1c-2sc2cc([14*])sc12']","[0, 0, 0, 0, 0, 17, 6, 18, 7, 19, 9, 1, 10, 68, 12, 13, 15]"
J71,ITVIC,-5.353333333333333,-3.4318181818181825,-5.46,-3.97,0.833,CF,_,160.0,7.34,7.42,0.89,57.64,"['[8*]CC(CCCCCC)CCCCCCCC', '[14*]c1ccc(C)s1', '[14*]c1ccc([Si](CCC)(CCC)CCC)s1', '[14*]c1ccc([14*])s1', '[9*]n1nc2c([16*])c(F)c(F)c([16*])c2n1', '[14*]c1cc2c([16*])c3sc(C)cc3c([16*])c2s1']","['[7*]C(C#N)C#N', '[7*]CC[7*]', '[7*]C1C(=O)c2ccccc2C1[7*]', '[7*]C[8*]', '[8*]CCCCCC', '[14*]c1cc2sc3c(c2s1)C(c1ccc([16*])cc1)(c1ccc([16*])cc1)c1cc2c(cc1-3)C(c1ccc([16*])cc1)(c1ccc([16*])cc1)c1c-2sc2cc([14*])sc12']","['[8*]CC(CCCCCC)CCCCCCCC', '[14*]c1ccc(C)s1', '[14*]c1ccc([Si](CCC)(CCC)CCC)s1', '[14*]c1ccc([14*])s1', '[9*]n1nc2c([16*])c(F)c(F)c([16*])c2n1', '[14*]c1cc2c([16*])c3sc(C)cc3c([16*])c2s1', '.', '[7*]C(C#N)C#N', '[7*]CC[7*]', '[7*]C1C(=O)c2ccccc2C1[7*]', '[7*]C[8*]', '[8*]CCCCCC', '[14*]c1cc2sc3c(c2s1)C(c1ccc([16*])cc1)(c1ccc([16*])cc1)c1cc2c(cc1-3)C(c1ccc([16*])cc1)(c1ccc([16*])cc1)c1c-2sc2cc([14*])sc12']","[0, 0, 0, 0, 17, 6, 18, 7, 19, 9, 1, 10, 39, 11, 12, 13, 15]"
J71,MeIC2,-5.353333333333333,-3.4318181818181825,-5.56,-3.97,1.0,CF,_,150.0,10.2,10.38,0.885,69.4,"['[8*]CC(CCCCCC)CCCCCCCC', '[14*]c1ccc(C)s1', '[14*]c1ccc([Si](CCC)(CCC)CCC)s1', '[14*]c1ccc([14*])s1', '[9*]n1nc2c([16*])c(F)c(F)c([16*])c2n1', '[14*]c1cc2c([16*])c3sc(C)cc3c([16*])c2s1']","['[7*]C(C#N)C#N', '[7*]C1C(=O)c2c(csc2C)C1[7*]', '[7*]C[8*]', '[8*]CCCCCC', '[14*]c1cc2c(s1)-c1sc3cc4c5c(sc4cc3c1C2(c1ccc([16*])cc1)c1ccc([16*])cc1)-c1sc([14*])cc1C5(c1ccc([16*])cc1)c1ccc([16*])cc1']","['[8*]CC(CCCCCC)CCCCCCCC', '[14*]c1ccc(C)s1', '[14*]c1ccc([Si](CCC)(CCC)CCC)s1', '[14*]c1ccc([14*])s1', '[9*]n1nc2c([16*])c(F)c(F)c([16*])c2n1', '[14*]c1cc2c([16*])c3sc(C)cc3c([16*])c2s1', '.', '[7*]C(C#N)C#N', '[7*]C1C(=O)c2c(csc2C)C1[7*]', '[7*]C[8*]', '[8*]CCCCCC', '[14*]c1cc2c(s1)-c1sc3cc4c5c(sc4cc3c1C2(c1ccc([16*])cc1)c1ccc([16*])cc1)-c1sc([14*])cc1C5(c1ccc([16*])cc1)c1ccc([16*])cc1']","[0, 0, 0, 0, 0, 17, 6, 18, 7, 19, 9, 1, 10, 45, 12, 13, 65]"
J70,m-ITIC,-5.37,-2.91,-5.526666666666667,-3.8515384615384622,0.667,CF,_,150.0,11.62,11.62,0.92,69.82,"['[8*]CC(CCCCCC)CCCCCCCC', '[14*]c1ccc(C)s1', '[14*]c1ccc([Si](CC)(CC)CC)s1', '[14*]c1ccc([14*])s1', '[9*]n1nc2c([16*])c(F)c(F)c([16*])c2n1', '[14*]c1cc2c([16*])c3sc(C)cc3c([16*])c2s1']","['[7*]C(C#N)C#N', '[7*]C1C(=O)c2ccccc2C1[7*]', '[7*]C[8*]', '[8*]CCCCCC', '[14*]c1cc2sc3c(c2s1)C(c1cccc([16*])c1)(c1cccc([16*])c1)c1cc2c(cc1-3)C(c1cccc([16*])c1)(c1cccc([16*])c1)c1c-2sc2cc([14*])sc12']","['[8*]CC(CCCCCC)CCCCCCCC', '[14*]c1ccc(C)s1', '[14*]c1ccc([Si](CC)(CC)CC)s1', '[14*]c1ccc([14*])s1', '[9*]n1nc2c([16*])c(F)c(F)c([16*])c2n1', '[14*]c1cc2c([16*])c3sc(C)cc3c([16*])c2s1', '.', '[7*]C(C#N)C#N', '[7*]C1C(=O)c2ccccc2C1[7*]', '[7*]C[8*]', '[8*]CCCCCC', '[14*]c1cc2sc3c(c2s1)C(c1cccc([16*])c1)(c1cccc([16*])c1)c1cc2c(cc1-3)C(c1cccc([16*])c1)(c1cccc([16*])c1)c1c-2sc2cc([14*])sc12']","[0, 0, 0, 0, 0, 17, 6, 71, 7, 19, 9, 1, 10, 11, 12, 13, 48]"
J72,m-ITIC,-5.42,-3.29,-5.526666666666667,-3.8515384615384622,0.667,CF,_,150.0,10.23,10.23,0.962,65.03,"['[8*]CC(CCCCCC)CCCCCCCC', '[14*]c1ccc(C)s1', '[14*]c1ccc([Si](C(C)C)(C(C)C)C(C)C)s1', '[14*]c1ccc([14*])s1', '[9*]n1nc2c([16*])c(F)c(F)c([16*])c2n1', '[14*]c1cc2c([16*])c3sc(C)cc3c([16*])c2s1']","['[7*]C(C#N)C#N', '[7*]C1C(=O)c2ccccc2C1[7*]', '[7*]C[8*]', '[8*]CCCCCC', '[14*]c1cc2sc3c(c2s1)C(c1cccc([16*])c1)(c1cccc([16*])c1)c1cc2c(cc1-3)C(c1cccc([16*])c1)(c1cccc([16*])c1)c1c-2sc2cc([14*])sc12']","['[8*]CC(CCCCCC)CCCCCCCC', '[14*]c1ccc(C)s1', '[14*]c1ccc([Si](C(C)C)(C(C)C)C(C)C)s1', '[14*]c1ccc([14*])s1', '[9*]n1nc2c([16*])c(F)c(F)c([16*])c2n1', '[14*]c1cc2c([16*])c3sc(C)cc3c([16*])c2s1', '.', '[7*]C(C#N)C#N', '[7*]C1C(=O)c2ccccc2C1[7*]', '[7*]C[8*]', '[8*]CCCCCC', '[14*]c1cc2sc3c(c2s1)C(c1cccc([16*])c1)(c1cccc([16*])c1)c1cc2c(cc1-3)C(c1cccc([16*])c1)(c1cccc([16*])c1)c1c-2sc2cc([14*])sc12']","[0, 0, 0, 0, 0, 17, 6, 72, 7, 19, 9, 1, 10, 11, 12, 13, 48]"