Donor,Acceptor,HOMO_D_eV,LUMO_D_eV,HOMO_A_eV,LUMO_A_eV,D_A_ratio_m_m,solvent,solvent_additive,annealing_temperature,PCE_percent,calc_PCE_percent,Voc_V,FF_percent,Donor_BRICS,Acceptor_BRICS,DA_pair_BRICS,DA_tokenized_BRICS
PTB7-Th,IHIC,-5.204782608695651,-3.5391891891891896,-5.45,-3.93,0.667,DCB,CN,25,9.41,7.75,0.744,60.9,"['O', 'CCCCC(C)CC', 'C=O', 'CCCCC(C)CC', 'Cc1scc2scc(F)c12', 'c1ccsc1', 'Cc1cc2cc3sccc3cc2s1']","['N#CCC#N', 'O=C1CCc2ccccc21', 'C', 'CCCCCC', 'c1ccc(C2(c3ccccc3)c3ccsc3-c3sc4c5c(sc4c32)-c2sccc2C5(c2ccccc2)c2ccccc2)cc1']","['O', 'CCCCC(C)CC', 'C=O', 'CCCCC(C)CC', 'Cc1scc2scc(F)c12', 'c1ccsc1', 'Cc1cc2cc3sccc3cc2s1', '.', 'N#CCC#N', 'O=C1CCc2ccccc21', 'C', 'CCCCCC', 'c1ccc(C2(c3ccccc3)c3ccsc3-c3sc4c5c(sc4c32)-c2sccc2C5(c2ccccc2)c2ccccc2)cc1']","[0, 0, 0, 0, 2, 3, 4, 3, 33, 6, 8, 1, 9, 10, 11, 12, 88]"
P3HT,N4,-5.057777777777777,-2.989444444444445,-5.54,-3.67,0.833,o-DCB,_,25,3.52,3.53,0.91,58.0,"['CCCCCC', 'Cc1cccs1', 'Cc1cccs1', 'c1ccsc1']","['O=C1CC(=O)c2ccccc21', 'CCCCCCCC', 'C', 'c1ccsc1', 'O=C1NC(=O)c2ccc3c4c(ccc1c24)C(=O)NC3=O']","['CCCCCC', 'Cc1cccs1', 'Cc1cccs1', 'c1ccsc1', '.', 'O=C1CC(=O)c2ccccc21', 'CCCCCCCC', 'C', 'c1ccsc1', 'O=C1NC(=O)c2ccc3c4c(ccc1c24)C(=O)NC3=O']","[0, 0, 0, 0, 0, 0, 0, 12, 5, 5, 6, 1, 90, 20, 11, 6, 89]"
P3HT,N6,-5.057777777777777,-2.989444444444445,-6.38,-3.98,0.833,o-DCB,_,25,6.11,6.11,0.9,63.0,"['CCCCCC', 'Cc1cccs1', 'Cc1cccs1', 'c1ccsc1']","['CCCCCCCC', 'CC1=C(C#N)C(=O)NC(=O)C1', 'C', 'c1ccsc1', 'O=C1NC(=O)c2ccc3c4c(ccc1c24)C(=O)NC3=O']","['CCCCCC', 'Cc1cccs1', 'Cc1cccs1', 'c1ccsc1', '.', 'CCCCCCCC', 'CC1=C(C#N)C(=O)NC(=O)C1', 'C', 'c1ccsc1', 'O=C1NC(=O)c2ccc3c4c(ccc1c24)C(=O)NC3=O']","[0, 0, 0, 0, 0, 0, 0, 12, 5, 5, 6, 1, 20, 92, 11, 6, 89]"
PTB7-Th,DTPC-IC,-5.204782608695651,-3.5391891891891896,-5.21,-3.97,0.667,DCB,_,25,3.12,3.12,0.863,42.4,"['O', 'CCCCC(C)CC', 'C=O', 'CCCCC(C)CC', 'Cc1scc2scc(F)c12', 'c1ccsc1', 'Cc1cc2cc3sccc3cc2s1']","['N#CCC#N', 'O=C1CCc2ccccc21', 'CCCCCCCCC(C)CCCCCC', 'C', 'CCCCCC', 'c1ccc(C2(c3ccccc3)c3ccsc3-c3cc4nc5cc6c7c(ccc8c9ccc2c3c9c4c5c78)C(c2ccccc2)(c2ccccc2)c2ccsc2-6)cc1']","['O', 'CCCCC(C)CC', 'C=O', 'CCCCC(C)CC', 'Cc1scc2scc(F)c12', 'c1ccsc1', 'Cc1cc2cc3sccc3cc2s1', '.', 'N#CCC#N', 'O=C1CCc2ccccc21', 'CCCCCCCCC(C)CCCCCC', 'C', 'CCCCCC', 'c1ccc(C2(c3ccccc3)c3ccsc3-c3cc4nc5cc6c7c(ccc8c9ccc2c3c9c4c5c78)C(c2ccccc2)(c2ccccc2)c2ccsc2-6)cc1']","[0, 0, 0, 2, 3, 4, 3, 33, 6, 8, 1, 9, 10, 16, 11, 12, 93]"
PTB7-Th,DTPC-DFIC,-5.204782608695651,-3.5391891891891896,-5.31,-4.1,0.667,DCB,DIO,25,10.21,10.21,0.76,61.3,"['O', 'CCCCC(C)CC', 'C=O', 'CCCCC(C)CC', 'Cc1scc2scc(F)c12', 'c1ccsc1', 'Cc1cc2cc3sccc3cc2s1']","['N#CCC#N', 'O=C1CCc2cc(F)c(F)cc21', 'CCCCCCCCC(C)CCCCCC', 'C', 'CCCCCC', 'c1ccc(C2(c3ccccc3)c3ccsc3-c3cc4nc5cc6c7c(ccc8c9ccc2c3c9c4c5c78)C(c2ccccc2)(c2ccccc2)c2ccsc2-6)cc1']","['O', 'CCCCC(C)CC', 'C=O', 'CCCCC(C)CC', 'Cc1scc2scc(F)c12', 'c1ccsc1', 'Cc1cc2cc3sccc3cc2s1', '.', 'N#CCC#N', 'O=C1CCc2cc(F)c(F)cc21', 'CCCCCCCCC(C)CCCCCC', 'C', 'CCCCCC', 'c1ccc(C2(c3ccccc3)c3ccsc3-c3cc4nc5cc6c7c(ccc8c9ccc2c3c9c4c5c78)C(c2ccccc2)(c2ccccc2)c2ccsc2-6)cc1']","[0, 0, 0, 2, 3, 4, 3, 33, 6, 8, 1, 9, 39, 16, 11, 12, 93]"
PBDB-T,DICTF,-5.297714285714285,-3.4170000000000003,-5.67,-3.79,0.833,CB,DIO,25,5.93,5.65,0.93,59.0,"['CCCCC(C)CC', 'Cc1cccs1', 'c1ccsc1', 'O=C1c2cscc2C(=O)c2cscc21', 'Cc1cc2cc3sccc3cc2s1']","['N#CCC#N', 'O=C1CCc2ccccc21', 'C', 'c1ccsc1', 'CCCCCCCCC1(CCCCCCCC)c2ccccc2-c2ccccc21']","['CCCCC(C)CC', 'Cc1cccs1', 'c1ccsc1', 'O=C1c2cscc2C(=O)c2cscc21', 'Cc1cc2cc3sccc3cc2s1', '.', 'N#CCC#N', 'O=C1CCc2ccccc21', 'C', 'c1ccsc1', 'CCCCCCCCC1(CCCCCCCC)c2ccccc2-c2ccccc21']","[0, 0, 0, 0, 0, 0, 3, 5, 6, 29, 8, 1, 9, 10, 11, 6, 70]"
P3HT,MPU1,-5.057777777777777,-2.989444444444445,-5.81,-3.99,1.0,CF,DIO,40,1.14,1.13,0.64,42.0,"['CCCCCC', 'Cc1cccs1', 'Cc1cccs1', 'c1ccsc1']","['CC', 'O=C1CSC(=S)N1', 'CCCCC(C)CC', 'C', 'c1ccsc1', 'O=C1NCC2C(=O)NCC12']","['CCCCCC', 'Cc1cccs1', 'Cc1cccs1', 'c1ccsc1', '.', 'CC', 'O=C1CSC(=S)N1', 'CCCCC(C)CC', 'C', 'c1ccsc1', 'O=C1NCC2C(=O)NCC12']","[0, 0, 0, 0, 0, 0, 12, 5, 5, 6, 1, 21, 69, 3, 11, 6, 95]"
P_dFBT-DTS,MPU1,-5.31,-3.33,-5.81,-3.99,1.0,CF,DIO,40,4.17,4.17,1.04,48.0,"['CCCCCC', 'Cc1c(F)ccc2nnnc12', 'CCCCCCCC[Si]1(CCCCCCCC)c2ccsc2-c2sc(C)cc21', 'CCCCCCCC[Si]1(CCCCCCCC)c2ccsc2-c2sccc21', 'Fc1ccc2nnnc2c1']","['CC', 'O=C1CSC(=S)N1', 'CCCCC(C)CC', 'C', 'c1ccsc1', 'O=C1NCC2C(=O)NCC12']","['CCCCCC', 'Cc1c(F)ccc2nnnc12', 'CCCCCCCC[Si]1(CCCCCCCC)c2ccsc2-c2sc(C)cc21', 'CCCCCCCC[Si]1(CCCCCCCC)c2ccsc2-c2sccc21', 'Fc1ccc2nnnc2c1', '.', 'CC', 'O=C1CSC(=S)N1', 'CCCCC(C)CC', 'C', 'c1ccsc1', 'O=C1NCC2C(=O)NCC12']","[0, 0, 0, 0, 0, 12, 96, 97, 98, 99, 1, 21, 69, 3, 11, 6, 95]"
PBDB-T,IDT-BC6,-5.297714285714285,-3.4170000000000003,-5.55,-3.83,1.0,o-DCB,_,25,2.3,2.28,0.92,44.0,"['CCCCC(C)CC', 'Cc1cccs1', 'c1ccsc1', 'O=C1c2cscc2C(=O)c2cscc21', 'Cc1cc2cc3sccc3cc2s1']","['N#CCC#N', 'O=C1CCc2ccccc21', 'C', 'CCCCCC', 'c1ccccc1', 'c1ccc(C2(c3ccccc3)c3cc4c(cc3-c3sccc32)C(c2ccccc2)(c2ccccc2)c2ccsc2-4)cc1']","['CCCCC(C)CC', 'Cc1cccs1', 'c1ccsc1', 'O=C1c2cscc2C(=O)c2cscc21', 'Cc1cc2cc3sccc3cc2s1', '.', 'N#CCC#N', 'O=C1CCc2ccccc21', 'C', 'CCCCCC', 'c1ccccc1', 'c1ccc(C2(c3ccccc3)c3cc4c(cc3-c3sccc32)C(c2ccccc2)(c2ccccc2)c2ccsc2-4)cc1']","[0, 0, 0, 0, 0, 3, 5, 6, 29, 8, 1, 9, 10, 11, 12, 56, 36]"
PBDB-T,IDT-BOC6,-5.297714285714285,-3.4170000000000003,-5.51,-3.78,1.0,o-DCB,DIO,25,9.6,9.56,1.01,54.0,"['CCCCC(C)CC', 'Cc1cccs1', 'c1ccsc1', 'O=C1c2cscc2C(=O)c2cscc21', 'Cc1cc2cc3sccc3cc2s1']","['CCCCCC', 'O', 'N#CCC#N', 'O=C1CCc2ccccc21', 'C', 'CCCCCC', 'c1ccccc1', 'c1ccc(C2(c3ccccc3)c3cc4c(cc3-c3sccc32)C(c2ccccc2)(c2ccccc2)c2ccsc2-4)cc1']","['CCCCC(C)CC', 'Cc1cccs1', 'c1ccsc1', 'O=C1c2cscc2C(=O)c2cscc21', 'Cc1cc2cc3sccc3cc2s1', '.', 'CCCCCC', 'O', 'N#CCC#N', 'O=C1CCc2ccccc21', 'C', 'CCCCCC', 'c1ccccc1', 'c1ccc(C2(c3ccccc3)c3cc4c(cc3-c3sccc32)C(c2ccccc2)(c2ccccc2)c2ccsc2-4)cc1']","[0, 0, 0, 3, 5, 6, 29, 8, 1, 12, 2, 9, 10, 11, 12, 56, 36]"
PTB7-Th,ITIC3,-5.204782608695651,-3.5391891891891896,-5.54,-3.9,0.667,CF,_,25,8.09,8.09,0.763,63.1,"['O', 'CCCCC(C)CC', 'C=O', 'CCCCC(C)CC', 'Cc1scc2scc(F)c12', 'c1ccsc1', 'Cc1cc2cc3sccc3cc2s1']","['N#CCC#N', 'O=C1CCc2ccc(F)cc21', 'C', 'CCCCCC', 'c1ccc(C2(c3ccccc3)c3cc4c(cc3-c3sc5ccsc5c32)C(c2ccccc2)(c2ccccc2)c2c-4sc3ccsc23)cc1']","['O', 'CCCCC(C)CC', 'C=O', 'CCCCC(C)CC', 'Cc1scc2scc(F)c12', 'c1ccsc1', 'Cc1cc2cc3sccc3cc2s1', '.', 'N#CCC#N', 'O=C1CCc2ccc(F)cc21', 'C', 'CCCCCC', 'c1ccc(C2(c3ccccc3)c3cc4c(cc3-c3sc5ccsc5c32)C(c2ccccc2)(c2ccccc2)c2c-4sc3ccsc23)cc1']","[0, 0, 0, 0, 2, 3, 4, 3, 33, 6, 8, 1, 9, 60, 11, 12, 14]"
PTB7-Th,FOIC,-5.204782608695651,-3.5391891891891896,-5.36,-3.92,0.667,CF,_,25,12.0,11.97,0.743,67.1,"['O', 'CCCCC(C)CC', 'C=O', 'CCCCC(C)CC', 'Cc1scc2scc(F)c12', 'c1ccsc1', 'Cc1cc2cc3sccc3cc2s1']","['N#CCC#N', 'O=C1CCc2ccc(F)cc21', 'C', 'CCCCCC', 'c1ccc(C2(c3ccccc3)c3c(sc4ccsc34)-c3sc4c5c(sc4c32)-c2sc3ccsc3c2C5(c2ccccc2)c2ccccc2)cc1']","['O', 'CCCCC(C)CC', 'C=O', 'CCCCC(C)CC', 'Cc1scc2scc(F)c12', 'c1ccsc1', 'Cc1cc2cc3sccc3cc2s1', '.', 'N#CCC#N', 'O=C1CCc2ccc(F)cc21', 'C', 'CCCCCC', 'c1ccc(C2(c3ccccc3)c3c(sc4ccsc34)-c3sc4c5c(sc4c32)-c2sc3ccsc3c2C5(c2ccccc2)c2ccccc2)cc1']","[0, 0, 0, 0, 2, 3, 4, 3, 33, 6, 8, 1, 9, 60, 11, 12, 13]"
PBDB-T,IT-O3,-5.297714285714285,-3.4170000000000003,-5.36,-3.31,1.0,CB,_,130,4.9,4.94,0.98,51.4,"['CCCCC(C)CC', 'Cc1cccs1', 'c1ccsc1', 'O=C1c2cscc2C(=O)c2cscc21', 'Cc1cc2cc3sccc3cc2s1']","['CCC', 'O', 'N#CCC#N', 'O=C1CCc2ccccc21', 'C', 'CCCCCC', 'c1ccc(C2(c3ccccc3)c3cc4c(cc3-c3sc5ccsc5c32)C(c2ccccc2)(c2ccccc2)c2c-4sc3ccsc23)cc1']","['CCCCC(C)CC', 'Cc1cccs1', 'c1ccsc1', 'O=C1c2cscc2C(=O)c2cscc21', 'Cc1cc2cc3sccc3cc2s1', '.', 'CCC', 'O', 'N#CCC#N', 'O=C1CCc2ccccc21', 'C', 'CCCCCC', 'c1ccc(C2(c3ccccc3)c3cc4c(cc3-c3sc5ccsc5c32)C(c2ccccc2)(c2ccccc2)c2c-4sc3ccsc23)cc1']","[0, 0, 0, 0, 3, 5, 6, 29, 8, 1, 100, 2, 9, 10, 11, 12, 14]"
PTPDBDT,ITIC,-5.6,-3.75,-5.574146341463415,-3.915,1.0,CF:n-hexane (9:1),_,25,6.4,6.39,1.04,58.0,"['CCCCCCCC', 'CCCCC(C)CC', 'Cc1scc2c1C(=O)NC2=O', 'c1ccsc1', 'Cc1cc2cc3sccc3cc2s1']","['N#CCC#N', 'O=C1CCc2ccccc21', 'C', 'CCCCCC', 'c1ccc(C2(c3ccccc3)c3cc4c(cc3-c3sc5ccsc5c32)C(c2ccccc2)(c2ccccc2)c2c-4sc3ccsc23)cc1']","['CCCCCCCC', 'CCCCC(C)CC', 'Cc1scc2c1C(=O)NC2=O', 'c1ccsc1', 'Cc1cc2cc3sccc3cc2s1', '.', 'N#CCC#N', 'O=C1CCc2ccccc21', 'C', 'CCCCCC', 'c1ccc(C2(c3ccccc3)c3cc4c(cc3-c3sc5ccsc5c32)C(c2ccccc2)(c2ccccc2)c2c-4sc3ccsc23)cc1']","[0, 0, 0, 0, 0, 0, 20, 3, 102, 6, 8, 1, 9, 10, 11, 12, 14]"
PTPDBDT,F-ITIC,-5.6,-3.75,-5.65,-4.09,1.0,CF:n-hexane (9:1),_,150,8.8,8.75,0.94,66.0,"['CCCCCCCC', 'CCCCC(C)CC', 'Cc1scc2c1C(=O)NC2=O', 'c1ccsc1', 'Cc1cc2cc3sccc3cc2s1']","['N#CCC#N', 'O=C1CCc2ccc(F)cc21', 'C', 'CCCCCC', 'c1ccc(C2(c3ccccc3)c3cc4c(cc3-c3sc5ccsc5c32)C(c2ccccc2)(c2ccccc2)c2c-4sc3ccsc23)cc1']","['CCCCCCCC', 'CCCCC(C)CC', 'Cc1scc2c1C(=O)NC2=O', 'c1ccsc1', 'Cc1cc2cc3sccc3cc2s1', '.', 'N#CCC#N', 'O=C1CCc2ccc(F)cc21', 'C', 'CCCCCC', 'c1ccc(C2(c3ccccc3)c3cc4c(cc3-c3sc5ccsc5c32)C(c2ccccc2)(c2ccccc2)c2c-4sc3ccsc23)cc1']","[0, 0, 0, 0, 0, 0, 20, 3, 102, 6, 8, 1, 9, 60, 11, 12, 14]"
PTPDBDT,Br-ITIC,-5.6,-3.75,-5.73,-4.2,1.0,CF:n-hexane (9:1),_,150,9.4,9.45,0.93,66.0,"['CCCCCCCC', 'CCCCC(C)CC', 'Cc1scc2c1C(=O)NC2=O', 'c1ccsc1', 'Cc1cc2cc3sccc3cc2s1']","['N#CCC#N', 'Bc1ccc2c(c1)C(=O)CC2', 'C', 'CCCCCC', 'c1ccc(C2(c3ccccc3)c3cc4c(cc3-c3sc5ccsc5c32)C(c2ccccc2)(c2ccccc2)c2c-4sc3ccsc23)cc1']","['CCCCCCCC', 'CCCCC(C)CC', 'Cc1scc2c1C(=O)NC2=O', 'c1ccsc1', 'Cc1cc2cc3sccc3cc2s1', '.', 'N#CCC#N', 'Bc1ccc2c(c1)C(=O)CC2', 'C', 'CCCCCC', 'c1ccc(C2(c3ccccc3)c3cc4c(cc3-c3sc5ccsc5c32)C(c2ccccc2)(c2ccccc2)c2c-4sc3ccsc23)cc1']","[0, 0, 0, 0, 0, 0, 20, 3, 102, 6, 8, 1, 9, 104, 11, 12, 14]"
PTPDBDT,I-ITIC,-5.6,-3.75,-5.68,-4.14,1.0,CF:n-hexane (9:1),_,150,8.9,8.77,0.93,65.0,"['CCCCCCCC', 'CCCCC(C)CC', 'Cc1scc2c1C(=O)NC2=O', 'c1ccsc1', 'Cc1cc2cc3sccc3cc2s1']","['N#CCC#N', 'O=C1CCc2ccc(I)cc21', 'C', 'CCCCCC', 'c1ccc(C2(c3ccccc3)c3cc4c(cc3-c3sc5ccsc5c32)C(c2ccccc2)(c2ccccc2)c2c-4sc3ccsc23)cc1']","['CCCCCCCC', 'CCCCC(C)CC', 'Cc1scc2c1C(=O)NC2=O', 'c1ccsc1', 'Cc1cc2cc3sccc3cc2s1', '.', 'N#CCC#N', 'O=C1CCc2ccc(I)cc21', 'C', 'CCCCCC', 'c1ccc(C2(c3ccccc3)c3cc4c(cc3-c3sc5ccsc5c32)C(c2ccccc2)(c2ccccc2)c2c-4sc3ccsc23)cc1']","[0, 0, 0, 0, 0, 0, 20, 3, 102, 6, 8, 1, 9, 105, 11, 12, 14]"
PBDB-T,NFBDT,-5.297714285714285,-3.4170000000000003,-5.400000000000001,-3.83,1.25,CF,_,25,10.15,9.93,0.863,66.3,"['CCCCC(C)CC', 'Cc1cccs1', 'c1ccsc1', 'O=C1c2cscc2C(=O)c2cscc21', 'Cc1cc2cc3sccc3cc2s1']","['N#CCC#N', 'O=C1CCc2ccccc21', 'C', 'CCCCCC', 'c1ccc(C2(c3ccccc3)c3ccsc3-c3sc4cc5c6c(sc5cc4c32)-c2sccc2C6(c2ccccc2)c2ccccc2)cc1']","['CCCCC(C)CC', 'Cc1cccs1', 'c1ccsc1', 'O=C1c2cscc2C(=O)c2cscc21', 'Cc1cc2cc3sccc3cc2s1', '.', 'N#CCC#N', 'O=C1CCc2ccccc21', 'C', 'CCCCCC', 'c1ccc(C2(c3ccccc3)c3ccsc3-c3sc4cc5c6c(sc5cc4c32)-c2sccc2C6(c2ccccc2)c2ccccc2)cc1']","[0, 0, 0, 0, 0, 0, 3, 5, 6, 29, 8, 1, 9, 10, 11, 12, 27]"
J71,ZITI-4F,-5.353333333333333,-3.4318181818181825,-5.66,-3.81,1.0,CF,_,120,13.18,13.17,0.85,72.76,"['CCCCCCCCC(C)CCCCCC', 'Cc1cccs1', 'CCC[Si](CCC)(CCC)c1cccs1', 'c1ccsc1', 'Fc1cc2nnnc2cc1F', 'Cc1cc2cc3sccc3cc2s1']","['CCCCCCC(C)CCCC', 'N#CCC#N', 'O=C1CCc2cc(F)c(F)cc21', 'C', 'SC1(S)C2=C(c3cc4c(cc31)-c1sccc1C4)C(S)(S)c1cc3c(cc12)Cc1ccsc1-3']","['CCCCCCCCC(C)CCCCCC', 'Cc1cccs1', 'CCC[Si](CCC)(CCC)c1cccs1', 'c1ccsc1', 'Fc1cc2nnnc2cc1F', 'Cc1cc2cc3sccc3cc2s1', '.', 'CCCCCCC(C)CCCC', 'N#CCC#N', 'O=C1CCc2cc(F)c(F)cc21', 'C', 'SC1(S)C2=C(c3cc4c(cc31)-c1sccc1C4)C(S)(S)c1cc3c(cc12)Cc1ccsc1-3']","[0, 0, 0, 0, 0, 16, 5, 17, 6, 18, 8, 1, 32, 9, 39, 11, 106]"
J71,ZITI,-5.353333333333333,-3.4318181818181825,-5.550000000000001,-3.78,1.0,CF,_,120,13.04,12.91,0.93,68.61,"['CCCCCCCCC(C)CCCCCC', 'Cc1cccs1', 'CCC[Si](CCC)(CCC)c1cccs1', 'c1ccsc1', 'Fc1cc2nnnc2cc1F', 'Cc1cc2cc3sccc3cc2s1']","['N#CCC#N', 'O=C1CCc2ccc(F)cc21', 'C', 'CCCCCCCCC(CCCCCC)CC1(CCCCCCCCC(C)CCCCCC)c2cc3c(cc2C2C1c1cc4c(cc1C2(CC(CCCCCC)CCCCCCCC)CC(CCCCCC)CCCCCCCC)-c1sccc1C4)Cc1ccsc1-3']","['CCCCCCCCC(C)CCCCCC', 'Cc1cccs1', 'CCC[Si](CCC)(CCC)c1cccs1', 'c1ccsc1', 'Fc1cc2nnnc2cc1F', 'Cc1cc2cc3sccc3cc2s1', '.', 'N#CCC#N', 'O=C1CCc2ccc(F)cc21', 'C', 'CCCCCCCCC(CCCCCC)CC1(CCCCCCCCC(C)CCCCCC)c2cc3c(cc2C2C1c1cc4c(cc1C2(CC(CCCCCC)CCCCCCCC)CC(CCCCCC)CCCCCCCC)-c1sccc1C4)Cc1ccsc1-3']","[0, 0, 0, 0, 0, 0, 16, 5, 17, 6, 18, 8, 1, 9, 60, 11, 107]"
PBDB-T,DTCCIC-C17,-5.297714285714285,-3.4170000000000003,-5.46,-3.65,0.667,CB,DIO,25,9.02,9.02,0.96,67.0,"['CCCCC(C)CC', 'Cc1cccs1', 'c1ccsc1', 'O=C1c2cscc2C(=O)c2cscc21', 'Cc1cc2cc3sccc3cc2s1']","['N#CCC#N', 'O=C1CCc2ccccc21', 'CCCCCCCCCCCCCCCCC', 'C', 'CCCCCCCC', 'c1ccc(C2(c3ccccc3)c3cc4c(cc3-c3sccc32)nc2cc3c(cc24)C(c2ccccc2)(c2ccccc2)c2ccsc2-3)cc1']","['CCCCC(C)CC', 'Cc1cccs1', 'c1ccsc1', 'O=C1c2cscc2C(=O)c2cscc21', 'Cc1cc2cc3sccc3cc2s1', '.', 'N#CCC#N', 'O=C1CCc2ccccc21', 'CCCCCCCCCCCCCCCCC', 'C', 'CCCCCCCC', 'c1ccc(C2(c3ccccc3)c3cc4c(cc3-c3sccc32)nc2cc3c(cc24)C(c2ccccc2)(c2ccccc2)c2ccsc2-3)cc1']","[0, 0, 0, 0, 0, 3, 5, 6, 29, 8, 1, 9, 10, 108, 11, 20, 109]"
P3HT,O-IDTBR,-5.057777777777777,-2.989444444444445,-5.535,-3.74,1.0,CB,_,130,6.3,6.0,0.72,60.0,"['CCCCCC', 'Cc1cccs1', 'Cc1cccs1', 'c1ccsc1']","['CC', 'O=C1CSC(=S)N1', 'C', 'c1ccc2nsnc2c1', 'CCCCCCCCC1(CCCCCCCC)c2cc3c(cc2-c2sccc21)C(CCCCCCCC)(CCCCCCCC)c1ccsc1-3']","['CCCCCC', 'Cc1cccs1', 'Cc1cccs1', 'c1ccsc1', '.', 'CC', 'O=C1CSC(=S)N1', 'C', 'c1ccc2nsnc2c1', 'CCCCCCCCC1(CCCCCCCC)c2cc3c(cc2-c2sccc21)C(CCCCCCCC)(CCCCCCCC)c1ccsc1-3']","[0, 0, 0, 0, 0, 0, 0, 12, 5, 5, 6, 1, 21, 69, 11, 34, 110]"
P3HT,EH-IDTBR,-5.057777777777777,-2.989444444444445,-5.58,-3.9,1.0,CB,_,130,6.0,5.7,0.76,62.0,"['CCCCCC', 'Cc1cccs1', 'Cc1cccs1', 'c1ccsc1']","['CC', 'O=C1CSC(=S)N1', 'C', 'c1ccc2nsnc2c1', 'CCCCC(CC)CC1(CC(CC)CCCC)c2cc3c(cc2-c2sccc21)C(CC(CC)CCCC)(CC(CC)CCCC)c1ccsc1-3']","['CCCCCC', 'Cc1cccs1', 'Cc1cccs1', 'c1ccsc1', '.', 'CC', 'O=C1CSC(=S)N1', 'C', 'c1ccc2nsnc2c1', 'CCCCC(CC)CC1(CC(CC)CCCC)c2cc3c(cc2-c2sccc21)C(CC(CC)CCCC)(CC(CC)CCCC)c1ccsc1-3']","[0, 0, 0, 0, 0, 0, 0, 12, 5, 5, 6, 1, 21, 69, 11, 34, 111]"
P3HT,FBR,-5.057777777777777,-2.989444444444445,-5.786666666666666,-3.673333333333333,1.0,CF:DCB (80:20),_,110,4.11,4.11,0.82,63.0,"['CCCCCC', 'Cc1cccs1', 'Cc1cccs1', 'c1ccsc1']","['CC', 'O=C1CSC(=S)N1', 'C', 'c1ccc2nsnc2c1', 'CCCCCCCCC1(CCCCCCCC)c2ccccc2-c2ccccc21']","['CCCCCC', 'Cc1cccs1', 'Cc1cccs1', 'c1ccsc1', '.', 'CC', 'O=C1CSC(=S)N1', 'C', 'c1ccc2nsnc2c1', 'CCCCCCCCC1(CCCCCCCC)c2ccccc2-c2ccccc21']","[0, 0, 0, 0, 0, 0, 0, 12, 5, 5, 6, 1, 21, 69, 11, 34, 70]"
PBDB-T,IDTCN,-5.297714285714285,-3.4170000000000003,-5.890000000000001,-3.93,1.0,CB,DIO,110,6.4,6.4,0.85,62.48,"['CCCCC(C)CC', 'Cc1cccs1', 'c1ccsc1', 'O=C1c2cscc2C(=O)c2cscc21', 'Cc1cc2cc3sccc3cc2s1']","['N#CCC#N', 'O=C1CCc2cscc21', 'C', 'CCCCCC', 'c1ccc(C2(c3ccccc3)c3cc4c(cc3-c3sccc32)C(c2ccccc2)(c2ccccc2)c2ccsc2-4)cc1']","['CCCCC(C)CC', 'Cc1cccs1', 'c1ccsc1', 'O=C1c2cscc2C(=O)c2cscc21', 'Cc1cc2cc3sccc3cc2s1', '.', 'N#CCC#N', 'O=C1CCc2cscc21', 'C', 'CCCCCC', 'c1ccc(C2(c3ccccc3)c3cc4c(cc3-c3sccc32)C(c2ccccc2)(c2ccccc2)c2ccsc2-4)cc1']","[0, 0, 0, 0, 0, 0, 3, 5, 6, 29, 8, 1, 9, 40, 11, 12, 36]"
P3HT,NAI-FN-NAI(DT),-5.057777777777777,-2.989444444444445,-6.09,-3.97,1.0,CB,_,25,0.75,0.79,0.89,35.0,"['CCCCCC', 'Cc1cccs1', 'Cc1cccs1', 'c1ccsc1']","['CCCCCCCCCCCCC(C)CCCCCCCCCC', 'O=C1NC(=O)c2cccc3cccc1c23', 'c1ccsc1', 'O=C1c2ccccc2-c2ccccc21']","['CCCCCC', 'Cc1cccs1', 'Cc1cccs1', 'c1ccsc1', '.', 'CCCCCCCCCCCCC(C)CCCCCCCCCC', 'O=C1NC(=O)c2cccc3cccc1c23', 'c1ccsc1', 'O=C1c2ccccc2-c2ccccc21']","[0, 0, 0, 0, 0, 0, 0, 0, 12, 5, 5, 6, 1, 114, 80, 6, 113]"
P3HT,PI-FN-PI(DT),-5.057777777777777,-2.989444444444445,-6.02,-3.92,1.0,CB,_,25,2.2,2.16,0.91,48.0,"['CCCCCC', 'Cc1cccs1', 'Cc1cccs1', 'c1ccsc1']","['CCCCCCCCCCCCC(C)CCCCCCCCCC', 'O=C1NC(=O)c2ccccc21', 'c1ccsc1', 'O=C1c2ccccc2-c2ccccc21']","['CCCCCC', 'Cc1cccs1', 'Cc1cccs1', 'c1ccsc1', '.', 'CCCCCCCCCCCCC(C)CCCCCCCCCC', 'O=C1NC(=O)c2ccccc21', 'c1ccsc1', 'O=C1c2ccccc2-c2ccccc21']","[0, 0, 0, 0, 0, 0, 0, 0, 12, 5, 5, 6, 1, 114, 115, 6, 113]"
PTzBI,ITIC,-5.34,-3.46,-5.574146341463415,-3.915,1.0,CB,DBE,130,10.24,10.24,0.87,64.34,"['CCCCCCCC', 'CCCCC(C)CC', 'c1ccsc1', 'Cc1cccs1', 'O=C1NC(=O)c2cc3nnnc3cc21', 'Cc1cc2cc3sccc3cc2s1']","['N#CCC#N', 'O=C1CCc2ccccc21', 'C', 'CCCCCC', 'c1ccc(C2(c3ccccc3)c3cc4c(cc3-c3sc5ccsc5c32)C(c2ccccc2)(c2ccccc2)c2c-4sc3ccsc23)cc1']","['CCCCCCCC', 'CCCCC(C)CC', 'c1ccsc1', 'Cc1cccs1', 'O=C1NC(=O)c2cc3nnnc3cc21', 'Cc1cc2cc3sccc3cc2s1', '.', 'N#CCC#N', 'O=C1CCc2ccccc21', 'C', 'CCCCCC', 'c1ccc(C2(c3ccccc3)c3cc4c(cc3-c3sc5ccsc5c32)C(c2ccccc2)(c2ccccc2)c2c-4sc3ccsc23)cc1']","[0, 0, 0, 0, 0, 20, 3, 6, 5, 116, 8, 1, 9, 10, 11, 12, 14]"
P3HT,NAI-FN-NAI(HD),-5.057777777777777,-2.989444444444445,-6.06,-3.98,1.0,CB,_,25,2.8,2.86,0.88,43.0,"['CCCCCC', 'Cc1cccs1', 'Cc1cccs1', 'c1ccsc1']","['CCCCCCCCC(C)CCCCCC', 'O=C1NC(=O)c2cccc3cccc1c23', 'c1ccsc1', 'O=C1c2ccccc2-c2ccccc21']","['CCCCCC', 'Cc1cccs1', 'Cc1cccs1', 'c1ccsc1', '.', 'CCCCCCCCC(C)CCCCCC', 'O=C1NC(=O)c2cccc3cccc1c23', 'c1ccsc1', 'O=C1c2ccccc2-c2ccccc21']","[0, 0, 0, 0, 0, 0, 0, 0, 12, 5, 5, 6, 1, 16, 80, 6, 113]"
P3HT,NAI-FCN-NAI(BO),-5.057777777777777,-2.989444444444445,-6.14,-4.21,1.0,CB,_,25,0.8,0.74,0.58,39.0,"['CCCCCC', 'Cc1cccs1', 'Cc1cccs1', 'c1ccsc1']","['CCCCCCC(C)CCCC', 'N#CCC#N', 'O=C1c2cccc3cccc(c23)C(=O)N1S', 'c1ccsc1', 'c1ccc2c(c1)Cc1ccccc1-2']","['CCCCCC', 'Cc1cccs1', 'Cc1cccs1', 'c1ccsc1', '.', 'CCCCCCC(C)CCCC', 'N#CCC#N', 'O=C1c2cccc3cccc(c23)C(=O)N1S', 'c1ccsc1', 'c1ccc2c(c1)Cc1ccccc1-2']","[0, 0, 0, 0, 0, 0, 0, 12, 5, 5, 6, 1, 32, 9, 112, 6, 117]"
FTAZ,INIC1,-5.43,-3.3200000000000003,-5.54,-3.97,0.667,CF,DIO,25,10.1,9.93,0.929,64.3,"['CCCCCCC(C)CCCC', 'S', 'Cc1cc2cc3sccc3cc2s1', 'Cc1cccs1', 'c1ccsc1', 'Fc1cc2nn(S)nc2cc1F']","['N#CCC#N', 'O=C1CCc2cccc(F)c21', 'C', 'CCCCCC', 'c1ccc(C2(c3ccccc3)c3cc4c(cc3-c3sc5c(sc6ccsc65)c32)C(c2ccccc2)(c2ccccc2)c2c-4sc3c2sc2ccsc23)cc1']","['CCCCCCC(C)CCCC', 'S', 'Cc1cc2cc3sccc3cc2s1', 'Cc1cccs1', 'c1ccsc1', 'Fc1cc2nn(S)nc2cc1F', '.', 'N#CCC#N', 'O=C1CCc2cccc(F)c21', 'C', 'CCCCCC', 'c1ccc(C2(c3ccccc3)c3cc4c(cc3-c3sc5c(sc6ccsc65)c32)C(c2ccccc2)(c2ccccc2)c2c-4sc3c2sc2ccsc23)cc1']","[0, 0, 0, 0, 0, 32, 24, 8, 5, 6, 57, 1, 9, 119, 11, 12, 118]"
FTAZ,INIC2,-5.43,-3.3200000000000003,-5.52,-3.98,0.667,CF,DIO,25,10.8,10.59,0.903,66.8,"['CCCCCCC(C)CCCC', 'S', 'Cc1cc2cc3sccc3cc2s1', 'Cc1cccs1', 'c1ccsc1', 'Fc1cc2nn(S)nc2cc1F']","['N#CCC#N', 'O=C1CCc2cc(F)ccc21', 'C', 'CCCCCC', 'c1ccc(C2(c3ccccc3)c3cc4c(cc3-c3sc5c(sc6ccsc65)c32)C(c2ccccc2)(c2ccccc2)c2c-4sc3c2sc2ccsc23)cc1']","['CCCCCCC(C)CCCC', 'S', 'Cc1cc2cc3sccc3cc2s1', 'Cc1cccs1', 'c1ccsc1', 'Fc1cc2nn(S)nc2cc1F', '.', 'N#CCC#N', 'O=C1CCc2cc(F)ccc21', 'C', 'CCCCCC', 'c1ccc(C2(c3ccccc3)c3cc4c(cc3-c3sc5c(sc6ccsc65)c32)C(c2ccccc2)(c2ccccc2)c2c-4sc3c2sc2ccsc23)cc1']","[0, 0, 0, 0, 0, 32, 24, 8, 5, 6, 57, 1, 9, 120, 11, 12, 118]"
FTAZ,INIC3,-5.43,-3.3200000000000003,-5.52,-4.02,0.667,CF,DIO,25,11.5,11.23,0.857,67.4,"['CCCCCCC(C)CCCC', 'S', 'Cc1cc2cc3sccc3cc2s1', 'Cc1cccs1', 'c1ccsc1', 'Fc1cc2nn(S)nc2cc1F']","['N#CCC#N', 'O=C1CCc2cc(F)c(F)cc21', 'C', 'CCCCCC', 'c1ccc(C2(c3ccccc3)c3cc4c(cc3-c3sc5c(sc6ccsc65)c32)C(c2ccccc2)(c2ccccc2)c2c-4sc3c2sc2ccsc23)cc1']","['CCCCCCC(C)CCCC', 'S', 'Cc1cc2cc3sccc3cc2s1', 'Cc1cccs1', 'c1ccsc1', 'Fc1cc2nn(S)nc2cc1F', '.', 'N#CCC#N', 'O=C1CCc2cc(F)c(F)cc21', 'C', 'CCCCCC', 'c1ccc(C2(c3ccccc3)c3cc4c(cc3-c3sc5c(sc6ccsc65)c32)C(c2ccccc2)(c2ccccc2)c2c-4sc3c2sc2ccsc23)cc1']","[0, 0, 0, 0, 0, 32, 24, 8, 5, 6, 57, 1, 9, 39, 11, 12, 118]"
PTB7-Th,F6IC,-5.204782608695651,-3.5391891891891896,-5.66,-4.02,0.588,CF,DPE,25,7.1,7.07,0.611,64.0,"['O', 'CCCCC(C)CC', 'C=O', 'CCCCC(C)CC', 'Cc1scc2scc(F)c12', 'c1ccsc1', 'Cc1cc2cc3sccc3cc2s1']","['N#CCC#N', 'O=C1CCc2cc(F)c(F)cc21', 'C', 'CCCCCC', 'c1ccc(C2(c3ccccc3)c3ccsc3-c3sc4c5c(sc4c32)-c2sccc2C5(c2ccccc2)c2ccccc2)cc1']","['O', 'CCCCC(C)CC', 'C=O', 'CCCCC(C)CC', 'Cc1scc2scc(F)c12', 'c1ccsc1', 'Cc1cc2cc3sccc3cc2s1', '.', 'N#CCC#N', 'O=C1CCc2cc(F)c(F)cc21', 'C', 'CCCCCC', 'c1ccc(C2(c3ccccc3)c3ccsc3-c3sc4c5c(sc4c32)-c2sccc2C5(c2ccccc2)c2ccccc2)cc1']","[0, 0, 0, 0, 2, 3, 4, 3, 33, 6, 8, 1, 9, 39, 11, 12, 88]"