Donor,Acceptor,HOMO_D_eV,LUMO_D_eV,HOMO_A_eV,LUMO_A_eV,D_A_ratio_m_m,solvent,solvent_additive,annealing_temperature,PCE_percent,calc_PCE_percent,Voc_V,FF_percent,Donor_BRICS,Acceptor_BRICS,DA_pair_BRICS,DA_tokenized_BRICS
PBDB-T,FICBF,-5.297714285714285,-3.4170000000000003,-5.66,-3.88,1.0,CB,_,80.0,7.41,7.41,0.87,67.0,"['[8*]CC(CC)CCCC', '[14*]c1ccc(C)s1', '[14*]c1ccc([14*])s1', '[14*]c1sc([14*])c2c1C(=O)c1c([14*])sc([14*])c1C2=O', '[14*]c1cc2c([16*])c3sc(C)cc3c([16*])c2s1']","['[7*]C(C#N)C#N', '[7*]C1C(=O)c2cc(F)c(F)cc2C1[7*]', '[7*]C[8*]', '[14*]c1ccc([14*])s1', '[16*]c1ccc2c(c1)C(CCCCCCCC)(CCCCCCCC)c1cc3c(cc1-2)C(CCCCCCCC)(CCCCCCCC)c1cc([16*])ccc1-3']","['[8*]CC(CC)CCCC', '[14*]c1ccc(C)s1', '[14*]c1ccc([14*])s1', '[14*]c1sc([14*])c2c1C(=O)c1c([14*])sc([14*])c1C2=O', '[14*]c1cc2c([16*])c3sc(C)cc3c([16*])c2s1', '.', '[7*]C(C#N)C#N', '[7*]C1C(=O)c2cc(F)c(F)cc2C1[7*]', '[7*]C[8*]', '[14*]c1ccc([14*])s1', '[16*]c1ccc2c(c1)C(CCCCCCCC)(CCCCCCCC)c1cc3c(cc1-2)C(CCCCCCCC)(CCCCCCCC)c1cc([16*])ccc1-3']","[0, 0, 0, 0, 0, 0, 5, 6, 7, 30, 9, 1, 10, 42, 12, 7, 152]"
PBT1-EH,IDTCN,-5.43,-3.43,-5.890000000000001,-3.93,1.0,CF,_,100.0,8.69,8.54,0.93,70.2,"['[4*]CC(CCCC)CCCCCC', '[4*]CC(CC)CCCC', '[11*]S[11*]', '[14*]c1ccc(C)s1', '[14*]c1ccc([14*])s1', '[14*]c1sc([14*])c2c1C(=O)c1c([14*])sc([14*])c1C2=O', '[14*]c1cc2c([16*])c3sc(C)cc3c([16*])c2s1']","['[7*]C(C#N)C#N', '[7*]C1C(=O)c2cscc2C1[7*]', '[7*]C[8*]', '[8*]CCCCCC', '[14*]c1cc2c(s1)-c1cc3c(cc1C2(c1ccc([16*])cc1)c1ccc([16*])cc1)-c1sc([14*])cc1C3(c1ccc([16*])cc1)c1ccc([16*])cc1']","['[4*]CC(CCCC)CCCCCC', '[4*]CC(CC)CCCC', '[11*]S[11*]', '[14*]c1ccc(C)s1', '[14*]c1ccc([14*])s1', '[14*]c1sc([14*])c2c1C(=O)c1c([14*])sc([14*])c1C2=O', '[14*]c1cc2c([16*])c3sc(C)cc3c([16*])c2s1', '.', '[7*]C(C#N)C#N', '[7*]C1C(=O)c2cscc2C1[7*]', '[7*]C[8*]', '[8*]CCCCCC', '[14*]c1cc2c(s1)-c1cc3c(cc1C2(c1ccc([16*])cc1)c1ccc([16*])cc1)-c1sc([14*])cc1C3(c1ccc([16*])cc1)c1ccc([16*])cc1']","[0, 0, 0, 0, 33, 3, 25, 6, 7, 30, 9, 1, 10, 44, 12, 13, 38]"
PBDB-T,IDT-T,-5.297714285714285,-3.4170000000000003,-5.49,-3.985,1.0,CB,_,25.0,6.36,6.36,0.952,59.62,"['[8*]CC(CC)CCCC', '[14*]c1ccc(C)s1', '[14*]c1ccc([14*])s1', '[14*]c1sc([14*])c2c1C(=O)c1c([14*])sc([14*])c1C2=O', '[14*]c1cc2c([16*])c3sc(C)cc3c([16*])c2s1']","['[7*]C(C#N)C#N', '[7*]C1C(=O)c2ccccc2C1[7*]', '[7*]C[8*]', '[8*]CCCCCC', '[14*]c1ccc([14*])s1', '[14*]c1cc2c(s1)-c1cc3c(cc1C2(c1ccc([16*])cc1)c1ccc([16*])cc1)-c1sc([14*])cc1C3(c1ccc([16*])cc1)c1ccc([16*])cc1']","['[8*]CC(CC)CCCC', '[14*]c1ccc(C)s1', '[14*]c1ccc([14*])s1', '[14*]c1sc([14*])c2c1C(=O)c1c([14*])sc([14*])c1C2=O', '[14*]c1cc2c([16*])c3sc(C)cc3c([16*])c2s1', '.', '[7*]C(C#N)C#N', '[7*]C1C(=O)c2ccccc2C1[7*]', '[7*]C[8*]', '[8*]CCCCCC', '[14*]c1ccc([14*])s1', '[14*]c1cc2c(s1)-c1cc3c(cc1C2(c1ccc([16*])cc1)c1ccc([16*])cc1)-c1sc([14*])cc1C3(c1ccc([16*])cc1)c1ccc([16*])cc1']","[0, 0, 0, 0, 0, 5, 6, 7, 30, 9, 1, 10, 11, 12, 13, 7, 38]"
PBDB-T,IDT-3MT,-5.297714285714285,-3.4170000000000003,-5.68,-4.16,1.0,CB,_,25.0,8.4,8.41,0.95,61.32,"['[8*]CC(CC)CCCC', '[14*]c1ccc(C)s1', '[14*]c1ccc([14*])s1', '[14*]c1sc([14*])c2c1C(=O)c1c([14*])sc([14*])c1C2=O', '[14*]c1cc2c([16*])c3sc(C)cc3c([16*])c2s1']","['[3*]OC', '[1*]C([6*])=O', '[7*]C(C#N)C#N', '[7*]C1C(=O)c2ccccc2C1[7*]', '[7*]C[8*]', '[8*]CCCCCC', '[14*]c1cc([16*])c([14*])s1', '[14*]c1cc2c(s1)-c1cc3c(cc1C2(c1ccc([16*])cc1)c1ccc([16*])cc1)-c1sc([14*])cc1C3(c1ccc([16*])cc1)c1ccc([16*])cc1']","['[8*]CC(CC)CCCC', '[14*]c1ccc(C)s1', '[14*]c1ccc([14*])s1', '[14*]c1sc([14*])c2c1C(=O)c1c([14*])sc([14*])c1C2=O', '[14*]c1cc2c([16*])c3sc(C)cc3c([16*])c2s1', '.', '[3*]OC', '[1*]C([6*])=O', '[7*]C(C#N)C#N', '[7*]C1C(=O)c2ccccc2C1[7*]', '[7*]C[8*]', '[8*]CCCCCC', '[14*]c1cc([16*])c([14*])s1', '[14*]c1cc2c(s1)-c1cc3c(cc1C2(c1ccc([16*])cc1)c1ccc([16*])cc1)-c1sc([14*])cc1C3(c1ccc([16*])cc1)c1ccc([16*])cc1']","[0, 0, 0, 5, 6, 7, 30, 9, 1, 69, 4, 10, 11, 12, 13, 34, 38]"
PBDB-T,SiIDT-IC,-5.297714285714285,-3.4170000000000003,-5.47,-3.78,1.0,CB,_,110.0,8.16,8.16,0.92,65.56,"['[8*]CC(CC)CCCC', '[14*]c1ccc(C)s1', '[14*]c1ccc([14*])s1', '[14*]c1sc([14*])c2c1C(=O)c1c([14*])sc([14*])c1C2=O', '[14*]c1cc2c([16*])c3sc(C)cc3c([16*])c2s1']","['[7*]C(C#N)C#N', '[7*]C1C(=O)c2ccccc2C1[7*]', '[7*]C[8*]', '[8*]CCCCCC', '[14*]c1cc2c(s1)-c1cc3c(cc1[Si]2(c1ccc([16*])cc1)c1ccc([16*])cc1)-c1sc([14*])cc1[Si]3(c1ccc([16*])cc1)c1ccc([16*])cc1']","['[8*]CC(CC)CCCC', '[14*]c1ccc(C)s1', '[14*]c1ccc([14*])s1', '[14*]c1sc([14*])c2c1C(=O)c1c([14*])sc([14*])c1C2=O', '[14*]c1cc2c([16*])c3sc(C)cc3c([16*])c2s1', '.', '[7*]C(C#N)C#N', '[7*]C1C(=O)c2ccccc2C1[7*]', '[7*]C[8*]', '[8*]CCCCCC', '[14*]c1cc2c(s1)-c1cc3c(cc1[Si]2(c1ccc([16*])cc1)c1ccc([16*])cc1)-c1sc([14*])cc1[Si]3(c1ccc([16*])cc1)c1ccc([16*])cc1']","[0, 0, 0, 0, 0, 0, 5, 6, 7, 30, 9, 1, 10, 11, 12, 13, 250]"
PBDB-T,IDTBSR,-5.297714285714285,-3.4170000000000003,-5.41,-3.88,0.5,CB,_,130.0,6.95,6.94,0.95,52.38,"['[8*]CC(CC)CCCC', '[14*]c1ccc(C)s1', '[14*]c1ccc([14*])s1', '[14*]c1sc([14*])c2c1C(=O)c1c([14*])sc([14*])c1C2=O', '[14*]c1cc2c([16*])c3sc(C)cc3c([16*])c2s1']","['[8*]CC', '[7*]C1SC(=S)N([10*])C1=O', '[7*]C[8*]', '[16*]c1ccc([16*])c2n[se]nc12', '[14*]c1cc2c(s1)-c1cc3c(cc1C2(CCCCCC)CCCCCC)-c1sc([14*])cc1C3(CCCCCC)CCCCCC']","['[8*]CC(CC)CCCC', '[14*]c1ccc(C)s1', '[14*]c1ccc([14*])s1', '[14*]c1sc([14*])c2c1C(=O)c1c([14*])sc([14*])c1C2=O', '[14*]c1cc2c([16*])c3sc(C)cc3c([16*])c2s1', '.', '[8*]CC', '[7*]C1SC(=S)N([10*])C1=O', '[7*]C[8*]', '[16*]c1ccc([16*])c2n[se]nc12', '[14*]c1cc2c(s1)-c1cc3c(cc1C2(CCCCCC)CCCCCC)-c1sc([14*])cc1C3(CCCCCC)CCCCCC']","[0, 0, 0, 0, 0, 0, 5, 6, 7, 30, 9, 1, 22, 76, 12, 252, 29]"
PBDB-T,TTIC,-5.297714285714285,-3.4170000000000003,-5.54,-4.109999999999999,0.667,DCB,DIO,125.0,10.61,10.63,0.77,62.0,"['[8*]CC(CC)CCCC', '[14*]c1ccc(C)s1', '[14*]c1ccc([14*])s1', '[14*]c1sc([14*])c2c1C(=O)c1c([14*])sc([14*])c1C2=O', '[14*]c1cc2c([16*])c3sc(C)cc3c([16*])c2s1']","['[7*]C(C#N)C#N', '[7*]C1C(=O)c2ccccc2C1[7*]', '[7*]C[8*]', '[8*]CCCCCC', '[14*]c1cc2c(s1)-c1sc3c4c(sc3c1C2(c1ccc([16*])cc1)c1ccc([16*])cc1)-c1sc([14*])cc1C4(c1ccc([16*])cc1)c1ccc([16*])cc1']","['[8*]CC(CC)CCCC', '[14*]c1ccc(C)s1', '[14*]c1ccc([14*])s1', '[14*]c1sc([14*])c2c1C(=O)c1c([14*])sc([14*])c1C2=O', '[14*]c1cc2c([16*])c3sc(C)cc3c([16*])c2s1', '.', '[7*]C(C#N)C#N', '[7*]C1C(=O)c2ccccc2C1[7*]', '[7*]C[8*]', '[8*]CCCCCC', '[14*]c1cc2c(s1)-c1sc3c4c(sc3c1C2(c1ccc([16*])cc1)c1ccc([16*])cc1)-c1sc([14*])cc1C4(c1ccc([16*])cc1)c1ccc([16*])cc1']","[0, 0, 0, 0, 0, 0, 5, 6, 7, 30, 9, 1, 10, 11, 12, 13, 101]"
PBDB-T,TTIC-M,-5.297714285714285,-3.4170000000000003,-5.49,-4.03,0.667,DCB,DIO,175.0,11.48,11.49,0.8,70.0,"['[8*]CC(CC)CCCC', '[14*]c1ccc(C)s1', '[14*]c1ccc([14*])s1', '[14*]c1sc([14*])c2c1C(=O)c1c([14*])sc([14*])c1C2=O', '[14*]c1cc2c([16*])c3sc(C)cc3c([16*])c2s1']","['[7*]C(C#N)C#N', '[7*]C1C(=O)c2ccc(C)cc2C1[7*]', '[7*]C[8*]', '[8*]CCCCCC', '[14*]c1cc2c(s1)-c1sc3c4c(sc3c1C2(c1ccc([16*])cc1)c1ccc([16*])cc1)-c1sc([14*])cc1C4(c1ccc([16*])cc1)c1ccc([16*])cc1']","['[8*]CC(CC)CCCC', '[14*]c1ccc(C)s1', '[14*]c1ccc([14*])s1', '[14*]c1sc([14*])c2c1C(=O)c1c([14*])sc([14*])c1C2=O', '[14*]c1cc2c([16*])c3sc(C)cc3c([16*])c2s1', '.', '[7*]C(C#N)C#N', '[7*]C1C(=O)c2ccc(C)cc2C1[7*]', '[7*]C[8*]', '[8*]CCCCCC', '[14*]c1cc2c(s1)-c1sc3c4c(sc3c1C2(c1ccc([16*])cc1)c1ccc([16*])cc1)-c1sc([14*])cc1C4(c1ccc([16*])cc1)c1ccc([16*])cc1']","[0, 0, 0, 0, 0, 0, 5, 6, 7, 30, 9, 1, 10, 16, 12, 13, 101]"
J52,ITIC,-5.218571428571429,-3.341428571428572,-5.574146341463415,-3.915,0.667,CF,_,25.0,3.78,3.77,0.803,43.2,"['[8*]CC(CCCCCC)CCCCCCCC', '[8*]CC(CC)CCCC', '[14*]c1ccc([14*])s1', '[14*]c1ccc(C)s1', '[9*]n1nc2c([16*])c(F)c(F)c([16*])c2n1', '[14*]c1cc2c([16*])c3sc(C)cc3c([16*])c2s1']","['[7*]C(C#N)C#N', '[7*]C1C(=O)c2ccccc2C1[7*]', '[7*]C[8*]', '[8*]CCCCCC', '[14*]c1cc2sc3c(c2s1)C(c1ccc([16*])cc1)(c1ccc([16*])cc1)c1cc2c(cc1-3)C(c1ccc([16*])cc1)(c1ccc([16*])cc1)c1c-2sc2cc([14*])sc12']","['[8*]CC(CCCCCC)CCCCCCCC', '[8*]CC(CC)CCCC', '[14*]c1ccc([14*])s1', '[14*]c1ccc(C)s1', '[9*]n1nc2c([16*])c(F)c(F)c([16*])c2n1', '[14*]c1cc2c([16*])c3sc(C)cc3c([16*])c2s1', '.', '[7*]C(C#N)C#N', '[7*]C1C(=O)c2ccccc2C1[7*]', '[7*]C[8*]', '[8*]CCCCCC', '[14*]c1cc2sc3c(c2s1)C(c1ccc([16*])cc1)(c1ccc([16*])cc1)c1cc2c(cc1-3)C(c1ccc([16*])cc1)(c1ccc([16*])cc1)c1c-2sc2cc([14*])sc12']","[0, 0, 0, 0, 0, 17, 5, 7, 6, 19, 9, 1, 10, 11, 12, 13, 15]"
J52-Cl,ITIC,-5.53,-5.38,-5.574146341463415,-3.915,0.667,CF,_,25.0,11.53,11.52,0.956,70.2,"['[8*]CC(CCCCCC)CCCCCCCC', '[8*]CC(CC)CCCC', '[14*]c1cc(Cl)c([14*])s1', '[14*]c1ccc(C)s1', '[14*]c1ccc([14*])s1', '[9*]n1nc2c([16*])c(F)c(F)c([16*])c2n1', '[14*]c1cc2c([16*])c3sc(C)cc3c([16*])c2s1']","['[7*]C(C#N)C#N', '[7*]C1C(=O)c2ccccc2C1[7*]', '[7*]C[8*]', '[8*]CCCCCC', '[14*]c1cc2sc3c(c2s1)C(c1ccc([16*])cc1)(c1ccc([16*])cc1)c1cc2c(cc1-3)C(c1ccc([16*])cc1)(c1ccc([16*])cc1)c1c-2sc2cc([14*])sc12']","['[8*]CC(CCCCCC)CCCCCCCC', '[8*]CC(CC)CCCC', '[14*]c1cc(Cl)c([14*])s1', '[14*]c1ccc(C)s1', '[14*]c1ccc([14*])s1', '[9*]n1nc2c([16*])c(F)c(F)c([16*])c2n1', '[14*]c1cc2c([16*])c3sc(C)cc3c([16*])c2s1', '.', '[7*]C(C#N)C#N', '[7*]C1C(=O)c2ccccc2C1[7*]', '[7*]C[8*]', '[8*]CCCCCC', '[14*]c1cc2sc3c(c2s1)C(c1ccc([16*])cc1)(c1ccc([16*])cc1)c1cc2c(cc1-3)C(c1ccc([16*])cc1)(c1ccc([16*])cc1)c1c-2sc2cc([14*])sc12']","[0, 0, 0, 0, 17, 5, 192, 6, 7, 19, 9, 1, 10, 11, 12, 13, 15]"
PBDB-T,IDTT2F,-5.297714285714285,-3.4170000000000003,-5.57,-4.03,1.0,DCB,_,25.0,8.85,8.85,0.81,59.0,"['[8*]CC(CC)CCCC', '[14*]c1ccc(C)s1', '[14*]c1ccc([14*])s1', '[14*]c1sc([14*])c2c1C(=O)c1c([14*])sc([14*])c1C2=O', '[14*]c1cc2c([16*])c3sc(C)cc3c([16*])c2s1']","['[7*]C(C#N)C#N', '[7*]C1C(=O)c2cc(F)c(F)cc2C1[7*]', '[7*]C[8*]', '[8*]CCCCCC', '[14*]c1ccc([14*])s1', '[14*]c1cc2c(s1)-c1cc3c(cc1C2(c1ccc([16*])cc1)c1ccc([16*])cc1)-c1sc([14*])cc1C3(c1ccc([16*])cc1)c1ccc([16*])cc1']","['[8*]CC(CC)CCCC', '[14*]c1ccc(C)s1', '[14*]c1ccc([14*])s1', '[14*]c1sc([14*])c2c1C(=O)c1c([14*])sc([14*])c1C2=O', '[14*]c1cc2c([16*])c3sc(C)cc3c([16*])c2s1', '.', '[7*]C(C#N)C#N', '[7*]C1C(=O)c2cc(F)c(F)cc2C1[7*]', '[7*]C[8*]', '[8*]CCCCCC', '[14*]c1ccc([14*])s1', '[14*]c1cc2c(s1)-c1cc3c(cc1C2(c1ccc([16*])cc1)c1ccc([16*])cc1)-c1sc([14*])cc1C3(c1ccc([16*])cc1)c1ccc([16*])cc1']","[0, 0, 0, 0, 0, 5, 6, 7, 30, 9, 1, 10, 42, 12, 13, 7, 38]"
PBDB-T,IDTOT2F,-5.297714285714285,-3.4170000000000003,-5.54,-3.94,1.0,DCB,_,25.0,12.79,12.77,0.85,72.0,"['[8*]CC(CC)CCCC', '[14*]c1ccc(C)s1', '[14*]c1ccc([14*])s1', '[14*]c1sc([14*])c2c1C(=O)c1c([14*])sc([14*])c1C2=O', '[14*]c1cc2c([16*])c3sc(C)cc3c([16*])c2s1']","['[4*]CCCCCC', '[3*]O[3*]', '[7*]C(C#N)C#N', '[7*]C1C(=O)c2cc(F)c(F)cc2C1[7*]', '[7*]C[8*]', '[8*]CCCCCC', '[14*]c1ccc([14*])s1', '[14*]c1sc2c(c1[16*])C(c1ccc([16*])cc1)(c1ccc([16*])cc1)c1cc3c(cc1-2)C(c1ccc([16*])cc1)(c1ccc([16*])cc1)c1c-3sc([14*])c1[16*]']","['[8*]CC(CC)CCCC', '[14*]c1ccc(C)s1', '[14*]c1ccc([14*])s1', '[14*]c1sc([14*])c2c1C(=O)c1c([14*])sc([14*])c1C2=O', '[14*]c1cc2c([16*])c3sc(C)cc3c([16*])c2s1', '.', '[4*]CCCCCC', '[3*]O[3*]', '[7*]C(C#N)C#N', '[7*]C1C(=O)c2cc(F)c(F)cc2C1[7*]', '[7*]C[8*]', '[8*]CCCCCC', '[14*]c1ccc([14*])s1', '[14*]c1sc2c(c1[16*])C(c1ccc([16*])cc1)(c1ccc([16*])cc1)c1cc3c(cc1-2)C(c1ccc([16*])cc1)(c1ccc([16*])cc1)c1c-3sc([14*])c1[16*]']","[0, 0, 0, 5, 6, 7, 30, 9, 1, 97, 2, 10, 42, 12, 13, 7, 253]"
PBDB-T,ITIC,-5.297714285714285,-3.4170000000000003,-5.574146341463415,-3.915,1.0,CB,_,25.0,9.94,9.94,0.897,65.5,"['[8*]CC(CC)CCCC', '[14*]c1ccc(C)s1', '[14*]c1ccc([14*])s1', '[14*]c1sc([14*])c2c1C(=O)c1c([14*])sc([14*])c1C2=O', '[14*]c1cc2c([16*])c3sc(C)cc3c([16*])c2s1']","['[7*]C(C#N)C#N', '[7*]C1C(=O)c2ccccc2C1[7*]', '[7*]C[8*]', '[8*]CCCCCC', '[14*]c1cc2sc3c(c2s1)C(c1ccc([16*])cc1)(c1ccc([16*])cc1)c1cc2c(cc1-3)C(c1ccc([16*])cc1)(c1ccc([16*])cc1)c1c-2sc2cc([14*])sc12']","['[8*]CC(CC)CCCC', '[14*]c1ccc(C)s1', '[14*]c1ccc([14*])s1', '[14*]c1sc([14*])c2c1C(=O)c1c([14*])sc([14*])c1C2=O', '[14*]c1cc2c([16*])c3sc(C)cc3c([16*])c2s1', '.', '[7*]C(C#N)C#N', '[7*]C1C(=O)c2ccccc2C1[7*]', '[7*]C[8*]', '[8*]CCCCCC', '[14*]c1cc2sc3c(c2s1)C(c1ccc([16*])cc1)(c1ccc([16*])cc1)c1cc2c(cc1-3)C(c1ccc([16*])cc1)(c1ccc([16*])cc1)c1c-2sc2cc([14*])sc12']","[0, 0, 0, 0, 0, 0, 5, 6, 7, 30, 9, 1, 10, 11, 12, 13, 15]"
PBDB-T,ITCT,-5.297714285714285,-3.4170000000000003,-5.596666666666667,-3.796666666666667,1.0,CB,_,25.0,10.99,10.99,0.85,72.3,"['[8*]CC(CC)CCCC', '[14*]c1ccc(C)s1', '[14*]c1ccc([14*])s1', '[14*]c1sc([14*])c2c1C(=O)c1c([14*])sc([14*])c1C2=O', '[14*]c1cc2c([16*])c3sc(C)cc3c([16*])c2s1']","['[7*]C(C#N)C#N', '[7*]C1C(=O)c2cscc2C1[7*]', '[7*]C[8*]', '[8*]CCCCCC', '[14*]c1cc2sc3c(c2s1)C(c1ccc([16*])cc1)(c1ccc([16*])cc1)c1cc2c(cc1-3)C(c1ccc([16*])cc1)(c1ccc([16*])cc1)c1c-2sc2cc([14*])sc12']","['[8*]CC(CC)CCCC', '[14*]c1ccc(C)s1', '[14*]c1ccc([14*])s1', '[14*]c1sc([14*])c2c1C(=O)c1c([14*])sc([14*])c1C2=O', '[14*]c1cc2c([16*])c3sc(C)cc3c([16*])c2s1', '.', '[7*]C(C#N)C#N', '[7*]C1C(=O)c2cscc2C1[7*]', '[7*]C[8*]', '[8*]CCCCCC', '[14*]c1cc2sc3c(c2s1)C(c1ccc([16*])cc1)(c1ccc([16*])cc1)c1cc2c(cc1-3)C(c1ccc([16*])cc1)(c1ccc([16*])cc1)c1c-2sc2cc([14*])sc12']","[0, 0, 0, 0, 0, 0, 5, 6, 7, 30, 9, 1, 10, 44, 12, 13, 15]"
P3HT,IDT-RCN,-5.057777777777777,-2.989444444444445,-5.62,-3.75,1.25,CB,CN,25.0,3.42,3.44,0.69,63.0,"['[8*]CCCCCC', '[14*]c1sc(C)cc1[16*]', '[14*]c1cc([16*])c(C)s1', '[14*]c1cc([16*])c([14*])s1']","['[8*]CC', '[8*]CCCCCC', '[9*]n1c(=C(C#N)C#N)s/c(=C\\c2ccc([16*])c3nsnc23)c1=O', '[14*]c1cc2c(s1)-c1cc3c(cc1C2(c1ccc([16*])cc1)c1ccc([16*])cc1)-c1sc([14*])cc1C3(c1ccc([16*])cc1)c1ccc([16*])cc1']","['[8*]CCCCCC', '[14*]c1sc(C)cc1[16*]', '[14*]c1cc([16*])c(C)s1', '[14*]c1cc([16*])c([14*])s1', '.', '[8*]CC', '[8*]CCCCCC', '[9*]n1c(=C(C#N)C#N)s/c(=C\\c2ccc([16*])c3nsnc23)c1=O', '[14*]c1cc2c(s1)-c1cc3c(cc1C2(c1ccc([16*])cc1)c1ccc([16*])cc1)-c1sc([14*])cc1C3(c1ccc([16*])cc1)c1ccc([16*])cc1']","[0, 0, 0, 0, 0, 0, 0, 0, 13, 102, 57, 34, 1, 22, 13, 94, 38]"
PBDB-T,IDTO-T-4F,-5.297714285714285,-3.4170000000000003,-5.49,-3.88,0.833,CF,DIO,25.0,12.62,12.64,0.864,72.7,"['[8*]CC(CC)CCCC', '[14*]c1ccc(C)s1', '[14*]c1ccc([14*])s1', '[14*]c1sc([14*])c2c1C(=O)c1c([14*])sc([14*])c1C2=O', '[14*]c1cc2c([16*])c3sc(C)cc3c([16*])c2s1']","['[4*]CCCCCCCC', '[3*]O[3*]', '[7*]C(C#N)C#N', '[7*]C1C(=O)c2cc(F)c(F)cc2C1[7*]', '[7*]C[8*]', '[8*]CCCCCC', '[14*]c1ccc([14*])s1', '[14*]c1sc2c(c1[16*])C(c1ccc([16*])cc1)(c1ccc([16*])cc1)c1cc3c(cc1-2)C(c1ccc([16*])cc1)(c1ccc([16*])cc1)c1c-3sc([14*])c1[16*]']","['[8*]CC(CC)CCCC', '[14*]c1ccc(C)s1', '[14*]c1ccc([14*])s1', '[14*]c1sc([14*])c2c1C(=O)c1c([14*])sc([14*])c1C2=O', '[14*]c1cc2c([16*])c3sc(C)cc3c([16*])c2s1', '.', '[4*]CCCCCCCC', '[3*]O[3*]', '[7*]C(C#N)C#N', '[7*]C1C(=O)c2cc(F)c(F)cc2C1[7*]', '[7*]C[8*]', '[8*]CCCCCC', '[14*]c1ccc([14*])s1', '[14*]c1sc2c(c1[16*])C(c1ccc([16*])cc1)(c1ccc([16*])cc1)c1cc3c(cc1-2)C(c1ccc([16*])cc1)(c1ccc([16*])cc1)c1c-3sc([14*])c1[16*]']","[0, 0, 0, 5, 6, 7, 30, 9, 1, 51, 2, 10, 42, 12, 13, 7, 253]"
PBDB-T,IDTO-Se-4F,-5.297714285714285,-3.4170000000000003,-5.48,-3.9,0.909,CB,DIO,25.0,10.67,10.67,0.831,69.2,"['[8*]CC(CC)CCCC', '[14*]c1ccc(C)s1', '[14*]c1ccc([14*])s1', '[14*]c1sc([14*])c2c1C(=O)c1c([14*])sc([14*])c1C2=O', '[14*]c1cc2c([16*])c3sc(C)cc3c([16*])c2s1']","['[4*]CCCCCCCC', '[3*]O[3*]', '[7*]C(C#N)C#N', '[7*]C1C(=O)c2cc(F)c(F)cc2C1[7*]', '[8*]CCCCCC', '[7*]Cc1ccc(-c2sc3c(c2[16*])C(c2ccc([16*])cc2)(c2ccc([16*])cc2)c2cc4c(cc2-3)C(c2ccc([16*])cc2)(c2ccc([16*])cc2)c2c-4sc(-c3ccc(C[7*])[se]3)c2[16*])[se]1']","['[8*]CC(CC)CCCC', '[14*]c1ccc(C)s1', '[14*]c1ccc([14*])s1', '[14*]c1sc([14*])c2c1C(=O)c1c([14*])sc([14*])c1C2=O', '[14*]c1cc2c([16*])c3sc(C)cc3c([16*])c2s1', '.', '[4*]CCCCCCCC', '[3*]O[3*]', '[7*]C(C#N)C#N', '[7*]C1C(=O)c2cc(F)c(F)cc2C1[7*]', '[8*]CCCCCC', '[7*]Cc1ccc(-c2sc3c(c2[16*])C(c2ccc([16*])cc2)(c2ccc([16*])cc2)c2cc4c(cc2-3)C(c2ccc([16*])cc2)(c2ccc([16*])cc2)c2c-4sc(-c3ccc(C[7*])[se]3)c2[16*])[se]1']","[0, 0, 0, 0, 0, 5, 6, 7, 30, 9, 1, 51, 2, 10, 42, 13, 254]"
PBDB-T,IDTO-TT-4F,-5.297714285714285,-3.4170000000000003,-5.39,-3.89,0.909,CF,DIO,25.0,10.21,10.22,0.856,69.4,"['[8*]CC(CC)CCCC', '[14*]c1ccc(C)s1', '[14*]c1ccc([14*])s1', '[14*]c1sc([14*])c2c1C(=O)c1c([14*])sc([14*])c1C2=O', '[14*]c1cc2c([16*])c3sc(C)cc3c([16*])c2s1']","['[4*]CCCCCCCC', '[3*]O[3*]', '[7*]C(C#N)C#N', '[7*]C1C(=O)c2cc(F)c(F)cc2C1[7*]', '[7*]C[8*]', '[8*]CCCCCC', '[14*]c1cc2sc([14*])cc2s1', '[14*]c1sc2c(c1[16*])C(c1ccc([16*])cc1)(c1ccc([16*])cc1)c1cc3c(cc1-2)C(c1ccc([16*])cc1)(c1ccc([16*])cc1)c1c-3sc([14*])c1[16*]']","['[8*]CC(CC)CCCC', '[14*]c1ccc(C)s1', '[14*]c1ccc([14*])s1', '[14*]c1sc([14*])c2c1C(=O)c1c([14*])sc([14*])c1C2=O', '[14*]c1cc2c([16*])c3sc(C)cc3c([16*])c2s1', '.', '[4*]CCCCCCCC', '[3*]O[3*]', '[7*]C(C#N)C#N', '[7*]C1C(=O)c2cc(F)c(F)cc2C1[7*]', '[7*]C[8*]', '[8*]CCCCCC', '[14*]c1cc2sc([14*])cc2s1', '[14*]c1sc2c(c1[16*])C(c1ccc([16*])cc1)(c1ccc([16*])cc1)c1cc3c(cc1-2)C(c1ccc([16*])cc1)(c1ccc([16*])cc1)c1c-3sc([14*])c1[16*]']","[0, 0, 0, 5, 6, 7, 30, 9, 1, 51, 2, 10, 42, 12, 13, 224, 253]"
PBDB-T,IDT2Se,-5.297714285714285,-3.4170000000000003,-5.41,-3.87,1.0,CB,_,80.0,9.11,9.11,0.88,59.8,"['[8*]CC(CC)CCCC', '[14*]c1ccc(C)s1', '[14*]c1ccc([14*])s1', '[14*]c1sc([14*])c2c1C(=O)c1c([14*])sc([14*])c1C2=O', '[14*]c1cc2c([16*])c3sc(C)cc3c([16*])c2s1']","['[7*]C(C#N)C#N', '[7*]C1C(=O)c2ccccc2C1[7*]', '[8*]CCCCCC', '[7*]Cc1ccc(-c2cc3c(s2)-c2cc4c(cc2C3(c2ccc([16*])cc2)c2ccc([16*])cc2)-c2sc(-c3ccc(C[7*])[se]3)cc2C4(c2ccc([16*])cc2)c2ccc([16*])cc2)[se]1']","['[8*]CC(CC)CCCC', '[14*]c1ccc(C)s1', '[14*]c1ccc([14*])s1', '[14*]c1sc([14*])c2c1C(=O)c1c([14*])sc([14*])c1C2=O', '[14*]c1cc2c([16*])c3sc(C)cc3c([16*])c2s1', '.', '[7*]C(C#N)C#N', '[7*]C1C(=O)c2ccccc2C1[7*]', '[8*]CCCCCC', '[7*]Cc1ccc(-c2cc3c(s2)-c2cc4c(cc2C3(c2ccc([16*])cc2)c2ccc([16*])cc2)-c2sc(-c3ccc(C[7*])[se]3)cc2C4(c2ccc([16*])cc2)c2ccc([16*])cc2)[se]1']","[0, 0, 0, 0, 0, 0, 0, 5, 6, 7, 30, 9, 1, 10, 11, 13, 255]"
PBDB-T,IDT2Se-4F,-5.297714285714285,-3.4170000000000003,-5.51,-4.0,1.0,CB,_,80.0,11.03,11.03,0.79,65.4,"['[8*]CC(CC)CCCC', '[14*]c1ccc(C)s1', '[14*]c1ccc([14*])s1', '[14*]c1sc([14*])c2c1C(=O)c1c([14*])sc([14*])c1C2=O', '[14*]c1cc2c([16*])c3sc(C)cc3c([16*])c2s1']","['[7*]C(C#N)C#N', '[7*]C1C(=O)c2cc(F)c(F)cc2C1[7*]', '[8*]CCCCCC', '[7*]Cc1ccc(-c2cc3c(s2)-c2cc4c(cc2C3(c2ccc([16*])cc2)c2ccc([16*])cc2)-c2sc(-c3ccc(C[7*])[se]3)cc2C4(c2ccc([16*])cc2)c2ccc([16*])cc2)[se]1']","['[8*]CC(CC)CCCC', '[14*]c1ccc(C)s1', '[14*]c1ccc([14*])s1', '[14*]c1sc([14*])c2c1C(=O)c1c([14*])sc([14*])c1C2=O', '[14*]c1cc2c([16*])c3sc(C)cc3c([16*])c2s1', '.', '[7*]C(C#N)C#N', '[7*]C1C(=O)c2cc(F)c(F)cc2C1[7*]', '[8*]CCCCCC', '[7*]Cc1ccc(-c2cc3c(s2)-c2cc4c(cc2C3(c2ccc([16*])cc2)c2ccc([16*])cc2)-c2sc(-c3ccc(C[7*])[se]3)cc2C4(c2ccc([16*])cc2)c2ccc([16*])cc2)[se]1']","[0, 0, 0, 0, 0, 0, 0, 5, 6, 7, 30, 9, 1, 10, 42, 13, 255]"
PBDTS-Se-TAZ,ITIC,-5.29,-3.49,-5.574146341463415,-3.915,1.0,CF,DIO,25.0,12.31,12.31,0.84,75.1,"['[4*]CC(CCCCCC)CCCCCCCC', '[8*]CCCCCCCC', '[11*]Sc1ccc(-c2c3cc(C)sc3c(-c3ccc(S[11*])[se]3)c3cc([14*])sc23)[se]1', '[14*]c1ccc(C)s1', '[14*]c1ccc([14*])s1', '[9*]n1nc2c([16*])c(F)c(F)c([16*])c2n1']","['[7*]C(C#N)C#N', '[7*]C1C(=O)c2ccccc2C1[7*]', '[7*]C[8*]', '[8*]CCCCCC', '[14*]c1cc2sc3c(c2s1)C(c1ccc([16*])cc1)(c1ccc([16*])cc1)c1cc2c(cc1-3)C(c1ccc([16*])cc1)(c1ccc([16*])cc1)c1c-2sc2cc([14*])sc12']","['[4*]CC(CCCCCC)CCCCCCCC', '[8*]CCCCCCCC', '[11*]Sc1ccc(-c2c3cc(C)sc3c(-c3ccc(S[11*])[se]3)c3cc([14*])sc23)[se]1', '[14*]c1ccc(C)s1', '[14*]c1ccc([14*])s1', '[9*]n1nc2c([16*])c(F)c(F)c([16*])c2n1', '.', '[7*]C(C#N)C#N', '[7*]C1C(=O)c2ccccc2C1[7*]', '[7*]C[8*]', '[8*]CCCCCC', '[14*]c1cc2sc3c(c2s1)C(c1ccc([16*])cc1)(c1ccc([16*])cc1)c1cc2c(cc1-3)C(c1ccc([16*])cc1)(c1ccc([16*])cc1)c1c-2sc2cc([14*])sc12']","[0, 0, 0, 0, 0, 199, 21, 257, 6, 7, 19, 1, 10, 11, 12, 13, 15]"