Donor,Acceptor,HOMO_D_eV,LUMO_D_eV,HOMO_A_eV,LUMO_A_eV,D_A_ratio_m_m,solvent,solvent_additive,annealing_temperature,PCE_percent,calc_PCE_percent,Voc_V,FF_percent,Donor_BRICS,Acceptor_BRICS,DA_pair_BRICS,DA_tokenized_BRICS
PBDBT-2F,IT-4F,-5.5,-3.75,-5.66875,-4.060416666666667,1.0,CB,DIO,25.0,13.37,13.33,0.86,74.5,"['[8*]CC(CC)CCCC', '[14*]c1ccc(C)s1', '[14*]c1cc(F)c([14*])s1', '[14*]c1sc([14*])c2c1C(=O)c1c([14*])sc([14*])c1C2=O', '[14*]c1ccc([14*])s1', '[14*]c1cc2c([16*])c3sc(C)cc3c([16*])c2s1']","['[7*]C(C#N)C#N', '[7*]C1C(=O)c2cc(F)c(F)cc2C1[7*]', '[7*]C[8*]', '[8*]CCCCCC', '[14*]c1cc2sc3c(c2s1)C(c1ccc([16*])cc1)(c1ccc([16*])cc1)c1cc2c(cc1-3)C(c1ccc([16*])cc1)(c1ccc([16*])cc1)c1c-2sc2cc([14*])sc12']","['[8*]CC(CC)CCCC', '[14*]c1ccc(C)s1', '[14*]c1cc(F)c([14*])s1', '[14*]c1sc([14*])c2c1C(=O)c1c([14*])sc([14*])c1C2=O', '[14*]c1ccc([14*])s1', '[14*]c1cc2c([16*])c3sc(C)cc3c([16*])c2s1', '.', '[7*]C(C#N)C#N', '[7*]C1C(=O)c2cc(F)c(F)cc2C1[7*]', '[7*]C[8*]', '[8*]CCCCCC', '[14*]c1cc2sc3c(c2s1)C(c1ccc([16*])cc1)(c1ccc([16*])cc1)c1cc2c(cc1-3)C(c1ccc([16*])cc1)(c1ccc([16*])cc1)c1c-2sc2cc([14*])sc12']","[0, 0, 0, 0, 0, 5, 6, 24, 30, 7, 9, 1, 10, 42, 12, 13, 15]"
PBDBT-2F,ITIC,-5.5,-3.75,-5.574146341463415,-3.915,1.0,CB,DIO,25.0,10.64,10.64,1.0,66.07,"['[8*]CC(CC)CCCC', '[14*]c1ccc(C)s1', '[14*]c1cc(F)c([14*])s1', '[14*]c1sc([14*])c2c1C(=O)c1c([14*])sc([14*])c1C2=O', '[14*]c1ccc([14*])s1', '[14*]c1cc2c([16*])c3sc(C)cc3c([16*])c2s1']","['[7*]C(C#N)C#N', '[7*]C1C(=O)c2ccccc2C1[7*]', '[7*]C[8*]', '[8*]CCCCCC', '[14*]c1cc2sc3c(c2s1)C(c1ccc([16*])cc1)(c1ccc([16*])cc1)c1cc2c(cc1-3)C(c1ccc([16*])cc1)(c1ccc([16*])cc1)c1c-2sc2cc([14*])sc12']","['[8*]CC(CC)CCCC', '[14*]c1ccc(C)s1', '[14*]c1cc(F)c([14*])s1', '[14*]c1sc([14*])c2c1C(=O)c1c([14*])sc([14*])c1C2=O', '[14*]c1ccc([14*])s1', '[14*]c1cc2c([16*])c3sc(C)cc3c([16*])c2s1', '.', '[7*]C(C#N)C#N', '[7*]C1C(=O)c2ccccc2C1[7*]', '[7*]C[8*]', '[8*]CCCCCC', '[14*]c1cc2sc3c(c2s1)C(c1ccc([16*])cc1)(c1ccc([16*])cc1)c1cc2c(cc1-3)C(c1ccc([16*])cc1)(c1ccc([16*])cc1)c1c-2sc2cc([14*])sc12']","[0, 0, 0, 0, 0, 5, 6, 24, 30, 7, 9, 1, 10, 11, 12, 13, 15]"
PBDB-T,ATT-6,-5.297714285714285,-3.4170000000000003,-5.45,-3.61,1.0,CF,_,160.0,8.22,8.36,0.96,59.37,"['[8*]CC(CC)CCCC', '[14*]c1ccc(C)s1', '[14*]c1ccc([14*])s1', '[14*]c1sc([14*])c2c1C(=O)c1c([14*])sc([14*])c1C2=O', '[14*]c1cc2c([16*])c3sc(C)cc3c([16*])c2s1']","['[3*]O[3*]', '[4*]CCCCCCCC', '[1*]C([6*])=O', '[8*]CC', '[8*]CCCCCC', '[9*]n1c(=C(C#N)C#N)s/c(=C/c2sc([14*])c3sc([14*])cc23)c1=O', '[14*]c1cc2c(s1)-c1cc3c(cc1C2(c1cccc([16*])c1)c1cccc([16*])c1)-c1sc([14*])cc1C3(c1cccc([16*])c1)c1cccc([16*])c1']","['[8*]CC(CC)CCCC', '[14*]c1ccc(C)s1', '[14*]c1ccc([14*])s1', '[14*]c1sc([14*])c2c1C(=O)c1c([14*])sc([14*])c1C2=O', '[14*]c1cc2c([16*])c3sc(C)cc3c([16*])c2s1', '.', '[3*]O[3*]', '[4*]CCCCCCCC', '[1*]C([6*])=O', '[8*]CC', '[8*]CCCCCC', '[9*]n1c(=C(C#N)C#N)s/c(=C/c2sc([14*])c3sc([14*])cc23)c1=O', '[14*]c1cc2c(s1)-c1cc3c(cc1C2(c1cccc([16*])c1)c1cccc([16*])c1)-c1sc([14*])cc1C3(c1cccc([16*])c1)c1cccc([16*])c1']","[0, 0, 0, 0, 5, 6, 7, 30, 9, 1, 2, 51, 4, 22, 13, 174, 201]"
PBDB-T,ATT-7,-5.297714285714285,-3.4170000000000003,-5.48,-3.66,1.0,CF,_,160.0,10.12,10.34,0.97,66.67,"['[8*]CC(CC)CCCC', '[14*]c1ccc(C)s1', '[14*]c1ccc([14*])s1', '[14*]c1sc([14*])c2c1C(=O)c1c([14*])sc([14*])c1C2=O', '[14*]c1cc2c([16*])c3sc(C)cc3c([16*])c2s1']","['[3*]O[3*]', '[4*]CCCCCCCC', '[4*]CCCCCC', '[1*]C([6*])=O', '[7*]C(C#N)C#N', '[7*]C1C(=O)c2ccccc2C1[7*]', '[7*]C[8*]', '[14*]c1cc2c([14*])sc([14*])c2s1', '[14*]c1cc2c(s1)-c1cc3c(cc1C2(c1cccc([16*])c1)c1cccc([16*])c1)-c1sc([14*])cc1C3(c1cccc([16*])c1)c1cccc([16*])c1']","['[8*]CC(CC)CCCC', '[14*]c1ccc(C)s1', '[14*]c1ccc([14*])s1', '[14*]c1sc([14*])c2c1C(=O)c1c([14*])sc([14*])c1C2=O', '[14*]c1cc2c([16*])c3sc(C)cc3c([16*])c2s1', '.', '[3*]O[3*]', '[4*]CCCCCCCC', '[4*]CCCCCC', '[1*]C([6*])=O', '[7*]C(C#N)C#N', '[7*]C1C(=O)c2ccccc2C1[7*]', '[7*]C[8*]', '[14*]c1cc2c([14*])sc([14*])c2s1', '[14*]c1cc2c(s1)-c1cc3c(cc1C2(c1cccc([16*])c1)c1cccc([16*])c1)-c1sc([14*])cc1C3(c1cccc([16*])c1)c1cccc([16*])c1']","[0, 0, 5, 6, 7, 30, 9, 1, 2, 51, 97, 4, 10, 11, 12, 99, 201]"
PBDB-T,BDTS-4Cl,-5.297714285714285,-3.4170000000000003,-5.45,-3.82,1.0,CF,_,25.0,3.73,3.73,0.83,45.9,"['[8*]CC(CC)CCCC', '[14*]c1ccc(C)s1', '[14*]c1ccc([14*])s1', '[14*]c1sc([14*])c2c1C(=O)c1c([14*])sc([14*])c1C2=O', '[14*]c1cc2c([16*])c3sc(C)cc3c([16*])c2s1']","['[7*]C(C#N)C#N', '[7*]C1C(=O)c2cc(Cl)c(Cl)cc2C1[7*]', '[7*]C[8*]', '[8*]CC(CC)CCCC', '[14*]c1cc2c(s1)-c1sc([14*])cc1[Si]2(CCCCCCCC)CCCCCCCC', '[14*]c1ccc([14*])s1', '[14*]c1cc2c([16*])c3sc([14*])cc3c([16*])c2s1']","['[8*]CC(CC)CCCC', '[14*]c1ccc(C)s1', '[14*]c1ccc([14*])s1', '[14*]c1sc([14*])c2c1C(=O)c1c([14*])sc([14*])c1C2=O', '[14*]c1cc2c([16*])c3sc(C)cc3c([16*])c2s1', '.', '[7*]C(C#N)C#N', '[7*]C1C(=O)c2cc(Cl)c(Cl)cc2C1[7*]', '[7*]C[8*]', '[8*]CC(CC)CCCC', '[14*]c1cc2c(s1)-c1sc([14*])cc1[Si]2(CCCCCCCC)CCCCCCCC', '[14*]c1ccc([14*])s1', '[14*]c1cc2c([16*])c3sc([14*])cc3c([16*])c2s1']","[0, 0, 0, 0, 5, 6, 7, 30, 9, 1, 10, 41, 12, 5, 114, 7, 203]"
PBDB-T,BDTC-4Cl,-5.297714285714285,-3.4170000000000003,-5.35,-3.75,1.0,CF,_,25.0,9.54,9.54,0.864,59.5,"['[8*]CC(CC)CCCC', '[14*]c1ccc(C)s1', '[14*]c1ccc([14*])s1', '[14*]c1sc([14*])c2c1C(=O)c1c([14*])sc([14*])c1C2=O', '[14*]c1cc2c([16*])c3sc(C)cc3c([16*])c2s1']","['[7*]C(C#N)C#N', '[7*]C1C(=O)c2cc(Cl)c(Cl)cc2C1[7*]', '[7*]C[8*]', '[8*]CC(CC)CCCC', '[14*]c1cc2c(s1)-c1sc([14*])cc1C2(CCCCCCCC)CCCCCCCC', '[14*]c1ccc([14*])s1', '[14*]c1cc2c([16*])c3sc([14*])cc3c([16*])c2s1']","['[8*]CC(CC)CCCC', '[14*]c1ccc(C)s1', '[14*]c1ccc([14*])s1', '[14*]c1sc([14*])c2c1C(=O)c1c([14*])sc([14*])c1C2=O', '[14*]c1cc2c([16*])c3sc(C)cc3c([16*])c2s1', '.', '[7*]C(C#N)C#N', '[7*]C1C(=O)c2cc(Cl)c(Cl)cc2C1[7*]', '[7*]C[8*]', '[8*]CC(CC)CCCC', '[14*]c1cc2c(s1)-c1sc([14*])cc1C2(CCCCCCCC)CCCCCCCC', '[14*]c1ccc([14*])s1', '[14*]c1cc2c([16*])c3sc([14*])cc3c([16*])c2s1']","[0, 0, 0, 0, 5, 6, 7, 30, 9, 1, 10, 41, 12, 5, 204, 7, 203]"
PTBB-o,ITCPTC,-5.52,-3.37,-5.604000000000001,-3.858000000000001,1.0,CF,_,100.0,2.14,2.22,0.99,30.5,"['[4*]CC(CC)CCCC', '[8*]CC(CC)CCCC', '[11*]S[11*]', '[14*]c1ccc(C)s1', '[14*]c1ccc([14*])s1', '[14*]c1sc([14*])c2c1C(=O)c1c([14*])sc([14*])c1C2=O', '[16*]c1ccccc1[16*]', '[14*]c1cc2c([16*])c3sc(C)cc3c([16*])c2s1']","['[7*]C(C#N)C#N', '[7*]C1C(=O)c2cscc2C1[7*]', '[7*]C[8*]', '[8*]CCCCCC', '[14*]c1cc2sc3c(c2s1)C(c1ccc([16*])cc1)(c1ccc([16*])cc1)c1cc2c(cc1-3)C(c1ccc([16*])cc1)(c1ccc([16*])cc1)c1c-2sc2cc([14*])sc12']","['[4*]CC(CC)CCCC', '[8*]CC(CC)CCCC', '[11*]S[11*]', '[14*]c1ccc(C)s1', '[14*]c1ccc([14*])s1', '[14*]c1sc([14*])c2c1C(=O)c1c([14*])sc([14*])c1C2=O', '[16*]c1ccccc1[16*]', '[14*]c1cc2c([16*])c3sc(C)cc3c([16*])c2s1', '.', '[7*]C(C#N)C#N', '[7*]C1C(=O)c2cscc2C1[7*]', '[7*]C[8*]', '[8*]CCCCCC', '[14*]c1cc2sc3c(c2s1)C(c1ccc([16*])cc1)(c1ccc([16*])cc1)c1cc2c(cc1-3)C(c1ccc([16*])cc1)(c1ccc([16*])cc1)c1c-2sc2cc([14*])sc12']","[0, 0, 0, 3, 5, 25, 6, 7, 30, 205, 9, 1, 10, 44, 12, 13, 15]"
J71,BTA3,-5.353333333333333,-3.4318181818181825,-5.415,-3.445,1.0,CF,_,150.0,8.6,8.6,1.2,69.0,"['[8*]CC(CCCCCC)CCCCCCCC', '[14*]c1ccc(C)s1', '[14*]c1ccc([Si](CCC)(CCC)CCC)s1', '[14*]c1ccc([14*])s1', '[9*]n1nc2c([16*])c(F)c(F)c([16*])c2n1', '[14*]c1cc2c([16*])c3sc(C)cc3c([16*])c2s1']","['[8*]CCCCCCCC', '[8*]CC', '[8*]CCCCCC', '[9*]n1nc2c([16*])ccc(/C=c3\\sc(=C(C#N)C#N)n([9*])c3=O)c2n1', '[14*]c1cc2c(s1)-c1cc3c(cc1C2(c1ccc([16*])cc1)c1ccc([16*])cc1)-c1sc([14*])cc1C3(c1ccc([16*])cc1)c1ccc([16*])cc1']","['[8*]CC(CCCCCC)CCCCCCCC', '[14*]c1ccc(C)s1', '[14*]c1ccc([Si](CCC)(CCC)CCC)s1', '[14*]c1ccc([14*])s1', '[9*]n1nc2c([16*])c(F)c(F)c([16*])c2n1', '[14*]c1cc2c([16*])c3sc(C)cc3c([16*])c2s1', '.', '[8*]CCCCCCCC', '[8*]CC', '[8*]CCCCCC', '[9*]n1nc2c([16*])ccc(/C=c3\\sc(=C(C#N)C#N)n([9*])c3=O)c2n1', '[14*]c1cc2c(s1)-c1cc3c(cc1C2(c1ccc([16*])cc1)c1ccc([16*])cc1)-c1sc([14*])cc1C3(c1ccc([16*])cc1)c1ccc([16*])cc1']","[0, 0, 0, 0, 0, 17, 6, 18, 7, 19, 9, 1, 21, 22, 13, 207, 38]"
PTB7-Th,Py-2,-5.204782608695651,-3.5391891891891896,-5.83,-3.78,1.0,CF,_,25.0,3.47,3.41,0.75,47.0,"['[3*]O[3*]', '[4*]CC(CC)CCCC', '[1*]C([6*])=O', '[8*]CC(CC)CCCC', '[14*]c1sc2c([14*])sc(C)c2c1F', '[14*]c1ccc([14*])s1', '[14*]c1cc2c([16*])c3sc(C)cc3c([16*])c2s1']","['[7*]C(C#N)C#N', '[7*]C1C(=O)c2cc(F)c(F)cc2C1[7*]', '[7*]C[8*]', '[8*]CCCCCC', '[14*]c1cc2c(s1)-c1cc3ccc4cc5c(c6ccc(c1C2(c1ccc([16*])cc1)c1ccc([16*])cc1)c3c46)C(c1ccc([16*])cc1)(c1ccc([16*])cc1)c1cc([14*])sc1-5']","['[3*]O[3*]', '[4*]CC(CC)CCCC', '[1*]C([6*])=O', '[8*]CC(CC)CCCC', '[14*]c1sc2c([14*])sc(C)c2c1F', '[14*]c1ccc([14*])s1', '[14*]c1cc2c([16*])c3sc(C)cc3c([16*])c2s1', '.', '[7*]C(C#N)C#N', '[7*]C1C(=O)c2cc(F)c(F)cc2C1[7*]', '[7*]C[8*]', '[8*]CCCCCC', '[14*]c1cc2c(s1)-c1cc3ccc4cc5c(c6ccc(c1C2(c1ccc([16*])cc1)c1ccc([16*])cc1)c3c46)C(c1ccc([16*])cc1)(c1ccc([16*])cc1)c1cc([14*])sc1-5']","[0, 0, 0, 0, 2, 3, 4, 5, 35, 7, 9, 1, 10, 42, 12, 13, 210]"
PFBDB-T,C8-ITIC,-5.47,-3.46,-5.63,-3.91,0.8,CB,_,25.0,12.5,12.57,0.93,69.0,"['[8*]C(CC)CCCCCC', '[14*]c1cc(F)c(C)s1', '[14*]c1ccc([14*])s1', '[14*]c1sc([14*])c2c1C(=O)c1c([14*])sc([14*])c1C2=O', '[14*]c1cc(F)c([14*])s1', '[14*]c1cc2c([16*])c3sc(C)cc3c([16*])c2s1']","['[7*]C(C#N)C#N', '[7*]C1C(=O)c2ccccc2C1[7*]', '[7*]C[8*]', '[8*]CCCCCC', '[14*]c1cc2c(s1)-c1sc3cc4c5c(sc4cc3c1C2(c1ccc([16*])cc1)c1ccc([16*])cc1)-c1sc([14*])cc1C5(c1ccc([16*])cc1)c1ccc([16*])cc1']","['[8*]C(CC)CCCCCC', '[14*]c1cc(F)c(C)s1', '[14*]c1ccc([14*])s1', '[14*]c1sc([14*])c2c1C(=O)c1c([14*])sc([14*])c1C2=O', '[14*]c1cc(F)c([14*])s1', '[14*]c1cc2c([16*])c3sc(C)cc3c([16*])c2s1', '.', '[7*]C(C#N)C#N', '[7*]C1C(=O)c2ccccc2C1[7*]', '[7*]C[8*]', '[8*]CCCCCC', '[14*]c1cc2c(s1)-c1sc3cc4c5c(sc4cc3c1C2(c1ccc([16*])cc1)c1ccc([16*])cc1)-c1sc([14*])cc1C5(c1ccc([16*])cc1)c1ccc([16*])cc1']","[0, 0, 0, 0, 0, 85, 212, 7, 30, 24, 9, 1, 10, 11, 12, 13, 65]"
P_TBTT-BTT,ICz-Rd2,-5.15,-3.58,-5.59,-3.88,1.0,CF,_,40.0,7.88,7.88,1.04,54.0,"['[8*]CCCCCCCC', '[14*]c1ccc([14*])s1', '[14*]c1ccc(C)s1', '[16*]c1ccc([16*])c2nsnc12', '[14*]c1cc2c(s1)c1sc(C)cc1c1c([14*])sc([14*])c21']","['[8*]CC', '[7*]C1SC(=S)N([10*])C1=O', '[8*]CC(CC)CCCC', '[7*]C[8*]', '[16*]c1ccc([16*])c2nsnc12', '[9*]n1c2cc([16*])ccc2c2cc3c(cc21)c1ccc([16*])cc1n3[9*]']","['[8*]CCCCCCCC', '[14*]c1ccc([14*])s1', '[14*]c1ccc(C)s1', '[16*]c1ccc([16*])c2nsnc12', '[14*]c1cc2c(s1)c1sc(C)cc1c1c([14*])sc([14*])c21', '.', '[8*]CC', '[7*]C1SC(=S)N([10*])C1=O', '[8*]CC(CC)CCCC', '[7*]C[8*]', '[16*]c1ccc([16*])c2nsnc12', '[9*]n1c2cc([16*])ccc2c2cc3c(cc21)c1ccc([16*])cc1n3[9*]']","[0, 0, 0, 0, 0, 21, 7, 6, 127, 213, 1, 22, 76, 5, 12, 127, 214]"
P_TBTT-BTT,ICz-RdCN2,-5.15,-3.58,-5.58,-3.98,1.0,CF,_,40.0,9.76,9.76,1.01,62.0,"['[8*]CCCCCCCC', '[14*]c1ccc([14*])s1', '[14*]c1ccc(C)s1', '[16*]c1ccc([16*])c2nsnc12', '[14*]c1cc2c(s1)c1sc(C)cc1c1c([14*])sc([14*])c21']","['[8*]CC(CC)CCCC', '[8*]CC', '[9*]n1c(=C(C#N)C#N)s/c(=C\\c2ccc([16*])c3nsnc23)c1=O', '[9*]n1c2cc([16*])ccc2c2cc3c(cc21)c1ccc([16*])cc1n3[9*]']","['[8*]CCCCCCCC', '[14*]c1ccc([14*])s1', '[14*]c1ccc(C)s1', '[16*]c1ccc([16*])c2nsnc12', '[14*]c1cc2c(s1)c1sc(C)cc1c1c([14*])sc([14*])c21', '.', '[8*]CC(CC)CCCC', '[8*]CC', '[9*]n1c(=C(C#N)C#N)s/c(=C\\c2ccc([16*])c3nsnc23)c1=O', '[9*]n1c2cc([16*])ccc2c2cc3c(cc21)c1ccc([16*])cc1n3[9*]']","[0, 0, 0, 0, 0, 0, 0, 21, 7, 6, 127, 213, 1, 5, 22, 94, 214]"
PBZ,IT-4F,-5.18,-3.22,-5.66875,-4.060416666666667,1.0,Toluene,PN,25.0,6.4,6.45,0.6,63.2,"['[8*]CC(CCCCCC)CCCCCCCC', '[8*]CC(CC)CCCC', '[14*]c1ccc([14*])s1', '[14*]c1ccc(C)s1', '[9*]n1nc2c([16*])c(F)c(F)c([16*])c2n1', '[14*]c1cc2c([16*])c3sc(C)cc3c([16*])c2s1']","['[7*]C(C#N)C#N', '[7*]C1C(=O)c2cc(F)c(F)cc2C1[7*]', '[7*]C[8*]', '[8*]CCCCCC', '[14*]c1cc2sc3c(c2s1)C(c1ccc([16*])cc1)(c1ccc([16*])cc1)c1cc2c(cc1-3)C(c1ccc([16*])cc1)(c1ccc([16*])cc1)c1c-2sc2cc([14*])sc12']","['[8*]CC(CCCCCC)CCCCCCCC', '[8*]CC(CC)CCCC', '[14*]c1ccc([14*])s1', '[14*]c1ccc(C)s1', '[9*]n1nc2c([16*])c(F)c(F)c([16*])c2n1', '[14*]c1cc2c([16*])c3sc(C)cc3c([16*])c2s1', '.', '[7*]C(C#N)C#N', '[7*]C1C(=O)c2cc(F)c(F)cc2C1[7*]', '[7*]C[8*]', '[8*]CCCCCC', '[14*]c1cc2sc3c(c2s1)C(c1ccc([16*])cc1)(c1ccc([16*])cc1)c1cc2c(cc1-3)C(c1ccc([16*])cc1)(c1ccc([16*])cc1)c1c-2sc2cc([14*])sc12']","[0, 0, 0, 0, 0, 17, 5, 7, 6, 19, 9, 1, 10, 42, 12, 13, 15]"
PBZ-ClSi,IT-4F,-5.56,-3.5,-5.66875,-4.060416666666667,1.0,Toluene,PN,25.0,12.8,12.77,0.93,71.5,"['[8*]CC(CCCCCC)CCCCCCCC', '[14*]c1ccc(C)s1', '[14*]c1cc(Cl)c([Si](CCC)(CCC)CCC)s1', '[14*]c1ccc([14*])s1', '[9*]n1nc2c([16*])c(F)c(F)c([16*])c2n1', '[14*]c1cc2c([16*])c3sc(C)cc3c([16*])c2s1']","['[7*]C(C#N)C#N', '[7*]C1C(=O)c2cc(F)c(F)cc2C1[7*]', '[7*]C[8*]', '[8*]CCCCCC', '[14*]c1cc2sc3c(c2s1)C(c1ccc([16*])cc1)(c1ccc([16*])cc1)c1cc2c(cc1-3)C(c1ccc([16*])cc1)(c1ccc([16*])cc1)c1c-2sc2cc([14*])sc12']","['[8*]CC(CCCCCC)CCCCCCCC', '[14*]c1ccc(C)s1', '[14*]c1cc(Cl)c([Si](CCC)(CCC)CCC)s1', '[14*]c1ccc([14*])s1', '[9*]n1nc2c([16*])c(F)c(F)c([16*])c2n1', '[14*]c1cc2c([16*])c3sc(C)cc3c([16*])c2s1', '.', '[7*]C(C#N)C#N', '[7*]C1C(=O)c2cc(F)c(F)cc2C1[7*]', '[7*]C[8*]', '[8*]CCCCCC', '[14*]c1cc2sc3c(c2s1)C(c1ccc([16*])cc1)(c1ccc([16*])cc1)c1cc2c(cc1-3)C(c1ccc([16*])cc1)(c1ccc([16*])cc1)c1c-2sc2cc([14*])sc12']","[0, 0, 0, 0, 0, 17, 6, 215, 7, 19, 9, 1, 10, 42, 12, 13, 15]"
PT2,ITIC,-5.35,-3.58,-5.574146341463415,-3.915,0.667,CB,_,25.0,9.0,8.78,0.84,64.0,"['[8*]CCCCCCCC', '[8*]CC(CC)CCCC', '[14*]c1ccc(C)s1', '[14*]c1ccc([14*])s1', '[14*]c1sc([14*])c2c1C(=O)c1c([14*])sc([14*])c1C2=O', '[14*]c1cc2c([16*])c3sc(C)cc3c([16*])c2s1']","['[7*]C(C#N)C#N', '[7*]C1C(=O)c2ccccc2C1[7*]', '[7*]C[8*]', '[8*]CCCCCC', '[14*]c1cc2sc3c(c2s1)C(c1ccc([16*])cc1)(c1ccc([16*])cc1)c1cc2c(cc1-3)C(c1ccc([16*])cc1)(c1ccc([16*])cc1)c1c-2sc2cc([14*])sc12']","['[8*]CCCCCCCC', '[8*]CC(CC)CCCC', '[14*]c1ccc(C)s1', '[14*]c1ccc([14*])s1', '[14*]c1sc([14*])c2c1C(=O)c1c([14*])sc([14*])c1C2=O', '[14*]c1cc2c([16*])c3sc(C)cc3c([16*])c2s1', '.', '[7*]C(C#N)C#N', '[7*]C1C(=O)c2ccccc2C1[7*]', '[7*]C[8*]', '[8*]CCCCCC', '[14*]c1cc2sc3c(c2s1)C(c1ccc([16*])cc1)(c1ccc([16*])cc1)c1cc2c(cc1-3)C(c1ccc([16*])cc1)(c1ccc([16*])cc1)c1c-2sc2cc([14*])sc12']","[0, 0, 0, 0, 0, 21, 5, 6, 7, 30, 9, 1, 10, 11, 12, 13, 15]"
PT3,ITIC,-5.37,-3.54,-5.574146341463415,-3.915,0.667,CB,_,25.0,9.21,9.29,0.88,68.0,"['[8*]CCCCCCCC', '[8*]CC(CC)CCCC', '[8*]CCCCCC', '[14*]c1cc2sc(C)c([16*])c2s1', '[14*]c1ccc([14*])s1', '[14*]c1sc([14*])c2c1C(=O)c1c([14*])sc([14*])c1C2=O', '[14*]c1cc2sc([14*])c([16*])c2s1', '[14*]c1cc2c([16*])c3sc(C)cc3c([16*])c2s1']","['[7*]C(C#N)C#N', '[7*]C1C(=O)c2ccccc2C1[7*]', '[7*]C[8*]', '[8*]CCCCCC', '[14*]c1cc2sc3c(c2s1)C(c1ccc([16*])cc1)(c1ccc([16*])cc1)c1cc2c(cc1-3)C(c1ccc([16*])cc1)(c1ccc([16*])cc1)c1c-2sc2cc([14*])sc12']","['[8*]CCCCCCCC', '[8*]CC(CC)CCCC', '[8*]CCCCCC', '[14*]c1cc2sc(C)c([16*])c2s1', '[14*]c1ccc([14*])s1', '[14*]c1sc([14*])c2c1C(=O)c1c([14*])sc([14*])c1C2=O', '[14*]c1cc2sc([14*])c([16*])c2s1', '[14*]c1cc2c([16*])c3sc(C)cc3c([16*])c2s1', '.', '[7*]C(C#N)C#N', '[7*]C1C(=O)c2ccccc2C1[7*]', '[7*]C[8*]', '[8*]CCCCCC', '[14*]c1cc2sc3c(c2s1)C(c1ccc([16*])cc1)(c1ccc([16*])cc1)c1cc2c(cc1-3)C(c1ccc([16*])cc1)(c1ccc([16*])cc1)c1c-2sc2cc([14*])sc12']","[0, 0, 0, 21, 5, 13, 176, 7, 30, 178, 9, 1, 10, 11, 12, 13, 15]"
PBDB-T,DF-TCIC,-5.297714285714285,-3.4170000000000003,-5.37,-3.76,0.833,CF,CN,140.0,8.23,8.18,0.86,58.0,"['[8*]CC(CC)CCCC', '[14*]c1ccc(C)s1', '[14*]c1ccc([14*])s1', '[14*]c1sc([14*])c2c1C(=O)c1c([14*])sc([14*])c1C2=O', '[14*]c1cc2c([16*])c3sc(C)cc3c([16*])c2s1']","['[7*]C(C#N)C#N', '[7*]C1C(=O)c2ccccc2C1[7*]', '[7*]C[8*]', '[14*]c1cc2c(s1)-c1sc([14*])cc1C2(CC(CC)CCCC)CC(CC)CCCC', '[14*]c1sc([14*])c(F)c1F']","['[8*]CC(CC)CCCC', '[14*]c1ccc(C)s1', '[14*]c1ccc([14*])s1', '[14*]c1sc([14*])c2c1C(=O)c1c([14*])sc([14*])c1C2=O', '[14*]c1cc2c([16*])c3sc(C)cc3c([16*])c2s1', '.', '[7*]C(C#N)C#N', '[7*]C1C(=O)c2ccccc2C1[7*]', '[7*]C[8*]', '[14*]c1cc2c(s1)-c1sc([14*])cc1C2(CC(CC)CCCC)CC(CC)CCCC', '[14*]c1sc([14*])c(F)c1F']","[0, 0, 0, 0, 0, 0, 5, 6, 7, 30, 9, 1, 10, 11, 12, 167, 75]"
BO2FC8,m-ITIC-OR-4Cl,-5.5,-3.6,-5.78,-4.05,0.667,CB,_,150.0,11.0,10.61,0.83,63.3,"['[4*]CCCCCCCC', '[3*]O[3*]', '[8*]CC(CC)CCCC', '[14*]c1cc(F)c([14*])s1', '[14*]c1ccc(C)s1', '[14*]c1ccc([14*])s1', '[16*]c1c([16*])c([16*])c2nonc2c1[16*]', '[14*]c1cc2c([16*])c3sc(C)cc3c([16*])c2s1']","['[4*]CCCCCC', '[3*]O[3*]', '[7*]C(C#N)C#N', '[7*]C1C(=O)c2cc(Cl)c(Cl)cc2C1[7*]', '[7*]C[8*]', '[14*]c1cc2sc3c(c2s1)C(c1cccc([16*])c1)(c1cccc([16*])c1)c1cc2c(cc1-3)C(c1cccc([16*])c1)(c1cccc([16*])c1)c1c-2sc2cc([14*])sc12']","['[4*]CCCCCCCC', '[3*]O[3*]', '[8*]CC(CC)CCCC', '[14*]c1cc(F)c([14*])s1', '[14*]c1ccc(C)s1', '[14*]c1ccc([14*])s1', '[16*]c1c([16*])c([16*])c2nonc2c1[16*]', '[14*]c1cc2c([16*])c3sc(C)cc3c([16*])c2s1', '.', '[4*]CCCCCC', '[3*]O[3*]', '[7*]C(C#N)C#N', '[7*]C1C(=O)c2cc(Cl)c(Cl)cc2C1[7*]', '[7*]C[8*]', '[14*]c1cc2sc3c(c2s1)C(c1cccc([16*])c1)(c1cccc([16*])c1)c1cc2c(cc1-3)C(c1cccc([16*])c1)(c1cccc([16*])c1)c1c-2sc2cc([14*])sc12']","[0, 0, 51, 2, 5, 24, 6, 7, 217, 9, 1, 97, 2, 10, 41, 12, 48]"
BO2FEH,m-ITIC-OR-4Cl,-5.59,-3.59,-5.78,-4.05,0.667,CB,_,150.0,6.4,6.15,0.88,48.5,"['[4*]CC(CC)CCCC', '[3*]O[3*]', '[8*]CC(CC)CCCC', '[14*]c1cc(F)c([14*])s1', '[14*]c1ccc(C)s1', '[14*]c1ccc([14*])s1', '[16*]c1c([16*])c([16*])c2nonc2c1[16*]', '[14*]c1cc2c([16*])c3sc(C)cc3c([16*])c2s1']","['[4*]CCCCCC', '[3*]O[3*]', '[7*]C(C#N)C#N', '[7*]C1C(=O)c2cc(Cl)c(Cl)cc2C1[7*]', '[7*]C[8*]', '[14*]c1cc2sc3c(c2s1)C(c1cccc([16*])c1)(c1cccc([16*])c1)c1cc2c(cc1-3)C(c1cccc([16*])c1)(c1cccc([16*])c1)c1c-2sc2cc([14*])sc12']","['[4*]CC(CC)CCCC', '[3*]O[3*]', '[8*]CC(CC)CCCC', '[14*]c1cc(F)c([14*])s1', '[14*]c1ccc(C)s1', '[14*]c1ccc([14*])s1', '[16*]c1c([16*])c([16*])c2nonc2c1[16*]', '[14*]c1cc2c([16*])c3sc(C)cc3c([16*])c2s1', '.', '[4*]CCCCCC', '[3*]O[3*]', '[7*]C(C#N)C#N', '[7*]C1C(=O)c2cc(Cl)c(Cl)cc2C1[7*]', '[7*]C[8*]', '[14*]c1cc2sc3c(c2s1)C(c1cccc([16*])c1)(c1cccc([16*])c1)c1cc2c(cc1-3)C(c1cccc([16*])c1)(c1cccc([16*])c1)c1c-2sc2cc([14*])sc12']","[0, 0, 3, 2, 5, 24, 6, 7, 217, 9, 1, 97, 2, 10, 41, 12, 48]"
PTB-EDOT,ITIC-Th,-5.33,-3.63,-5.673333333333334,-3.908888888888889,0.667,MeTHF,_,100.0,8.59,8.59,0.84,66.5,"['[3*]O[3*]', '[4*]CC(CC)CCCC', '[1*]C([6*])=O', '[8*]CC(CC)CCCC', '[14*]c1sc2c([14*])sc(C)c2c1F', '[14*]c1sc([14*])c2c1OCCO2', '[14*]c1cc2c([16*])c3sc(C)cc3c([16*])c2s1']","['[7*]C(C#N)C#N', '[7*]C1C(=O)c2ccccc2C1[7*]', '[7*]C[8*]', '[8*]CCCCCC', '[14*]c1ccc(C2(c3ccc([14*])s3)c3cc4c(cc3-c3sc5cc([14*])sc5c32)C(c2ccc([14*])s2)(c2ccc([14*])s2)c2c-4sc3cc([14*])sc23)s1']","['[3*]O[3*]', '[4*]CC(CC)CCCC', '[1*]C([6*])=O', '[8*]CC(CC)CCCC', '[14*]c1sc2c([14*])sc(C)c2c1F', '[14*]c1sc([14*])c2c1OCCO2', '[14*]c1cc2c([16*])c3sc(C)cc3c([16*])c2s1', '.', '[7*]C(C#N)C#N', '[7*]C1C(=O)c2ccccc2C1[7*]', '[7*]C[8*]', '[8*]CCCCCC', '[14*]c1ccc(C2(c3ccc([14*])s3)c3cc4c(cc3-c3sc5cc([14*])sc5c32)C(c2ccc([14*])s2)(c2ccc([14*])s2)c2c-4sc3cc([14*])sc23)s1']","[0, 0, 0, 0, 2, 3, 4, 5, 35, 155, 9, 1, 10, 11, 12, 13, 67]"
PTB-EDOTS,ITIC-Th,-5.38,-3.69,-5.673333333333334,-3.908888888888889,0.667,MeTHF,_,100.0,10.18,10.18,0.88,71.2,"['[3*]O[3*]', '[4*]CC(CC)CCCC', '[1*]C([6*])=O', '[11*]S[11*]', '[14*]c1sc2c([14*])sc(C)c2c1F', '[14*]c1sc([14*])c2c1OCCO2', '[14*]c1cc2c([16*])c3sc(C)cc3c([16*])c2s1']","['[7*]C(C#N)C#N', '[7*]C1C(=O)c2ccccc2C1[7*]', '[7*]C[8*]', '[8*]CCCCCC', '[14*]c1ccc(C2(c3ccc([14*])s3)c3cc4c(cc3-c3sc5cc([14*])sc5c32)C(c2ccc([14*])s2)(c2ccc([14*])s2)c2c-4sc3cc([14*])sc23)s1']","['[3*]O[3*]', '[4*]CC(CC)CCCC', '[1*]C([6*])=O', '[11*]S[11*]', '[14*]c1sc2c([14*])sc(C)c2c1F', '[14*]c1sc([14*])c2c1OCCO2', '[14*]c1cc2c([16*])c3sc(C)cc3c([16*])c2s1', '.', '[7*]C(C#N)C#N', '[7*]C1C(=O)c2ccccc2C1[7*]', '[7*]C[8*]', '[8*]CCCCCC', '[14*]c1ccc(C2(c3ccc([14*])s3)c3cc4c(cc3-c3sc5cc([14*])sc5c32)C(c2ccc([14*])s2)(c2ccc([14*])s2)c2c-4sc3cc([14*])sc23)s1']","[0, 0, 0, 0, 2, 3, 4, 25, 35, 155, 9, 1, 10, 11, 12, 13, 67]"