Donor,Acceptor,HOMO_D_eV,LUMO_D_eV,HOMO_A_eV,LUMO_A_eV,D_A_ratio_m_m,solvent,solvent_additive,annealing_temperature,PCE_percent,calc_PCE_percent,Voc_V,FF_percent,Donor_BRICS,Acceptor_BRICS,DA_pair_BRICS,DA_tokenized_BRICS
PffBT2T-TT,O-IDTBR,-5.42,-3.52,-5.535,-3.74,0.667,"1,2,4-trimethylbenzene",_,90,10.4,10.36,1.08,67.0,"['CCCCCCCCCCCC(C)CCCCCCCCC', 'Cc1cc2sccc2s1', 'Cc1cccs1', 'c1ccsc1', 'Fc1cc2nsnc2cc1F']","['CC', 'O=C1CSC(=S)N1', 'C', 'c1ccc2nsnc2c1', 'CCCCCCCCC1(CCCCCCCC)c2cc3c(cc2-c2sccc21)C(CCCCCCCC)(CCCCCCCC)c1ccsc1-3']","['CCCCCCCCCCCC(C)CCCCCCCCC', 'Cc1cc2sccc2s1', 'Cc1cccs1', 'c1ccsc1', 'Fc1cc2nsnc2cc1F', '.', 'CC', 'O=C1CSC(=S)N1', 'C', 'c1ccc2nsnc2c1', 'CCCCCCCCC1(CCCCCCCC)c2cc3c(cc2-c2sccc21)C(CCCCCCCC)(CCCCCCCC)c1ccsc1-3']","[0, 0, 0, 0, 0, 0, 152, 150, 5, 6, 52, 1, 21, 69, 11, 34, 110]"
PffBT4T-2OD,EH-IDTBR,-5.32,-3.695,-5.58,-3.9,0.667,o-xylene,_,100,9.5,9.49,1.08,60.0,"['CCCCCCCCCCC(C)CCCCCCCC', 'CCCCCCCCCCC(C)CCCCCCCC', 'Cc1cccs1', 'Cc1cccs1', 'c1ccsc1', 'c1ccsc1', 'Fc1cc2nsnc2cc1F']","['CC', 'O=C1CSC(=S)N1', 'C', 'c1ccc2nsnc2c1', 'CCCCC(CC)CC1(CC(CC)CCCC)c2cc3c(cc2-c2sccc21)C(CC(CC)CCCC)(CC(CC)CCCC)c1ccsc1-3']","['CCCCCCCCCCC(C)CCCCCCCC', 'CCCCCCCCCCC(C)CCCCCCCC', 'Cc1cccs1', 'Cc1cccs1', 'c1ccsc1', 'c1ccsc1', 'Fc1cc2nsnc2cc1F', '.', 'CC', 'O=C1CSC(=S)N1', 'C', 'c1ccc2nsnc2c1', 'CCCCC(CC)CC1(CC(CC)CCCC)c2cc3c(cc2-c2sccc21)C(CC(CC)CCCC)(CC(CC)CCCC)c1ccsc1-3']","[0, 0, 0, 0, 42, 42, 5, 5, 6, 6, 52, 1, 21, 69, 11, 34, 111]"
PTB7-Th,IDT-BT-R,-5.204782608695651,-3.5391891891891896,-5.3,-3.56,0.667,DCB,_,150,8.2,8.2,1.02,59.1,"['O', 'CCCCC(C)CC', 'C=O', 'CCCCC(C)CC', 'Cc1scc2scc(F)c12', 'c1ccsc1', 'Cc1cc2cc3sccc3cc2s1']","['CC', 'O=C1CSC(=S)N1', 'C', 'CCCCCC', 'c1ccc2nsnc2c1', 'c1ccc(C2(c3ccccc3)c3cc4c(cc3-c3sccc32)C(c2ccccc2)(c2ccccc2)c2ccsc2-4)cc1']","['O', 'CCCCC(C)CC', 'C=O', 'CCCCC(C)CC', 'Cc1scc2scc(F)c12', 'c1ccsc1', 'Cc1cc2cc3sccc3cc2s1', '.', 'CC', 'O=C1CSC(=S)N1', 'C', 'CCCCCC', 'c1ccc2nsnc2c1', 'c1ccc(C2(c3ccccc3)c3cc4c(cc3-c3sccc32)C(c2ccccc2)(c2ccccc2)c2ccsc2-4)cc1']","[0, 0, 0, 2, 3, 4, 3, 33, 6, 8, 1, 21, 69, 11, 12, 34, 36]"
P3HT,BTA1,-5.057777777777777,-2.989444444444445,-5.510000000000001,-3.5499999999999994,1.667,CF,CN,100,5.24,5.24,1.02,70.0,"['CCCCCC', 'Cc1cccs1', 'Cc1cccs1', 'c1ccsc1']","['CC', 'O=C1CSC(=S)N1', 'CCCCCCCC', 'C', 'CCCCCC', 'c1ccc2nnnc2c1', 'c1ccc(C2(c3ccccc3)c3cc4c(cc3-c3sccc32)C(c2ccccc2)(c2ccccc2)c2ccsc2-4)cc1']","['CCCCCC', 'Cc1cccs1', 'Cc1cccs1', 'c1ccsc1', '.', 'CC', 'O=C1CSC(=S)N1', 'CCCCCCCC', 'C', 'CCCCCC', 'c1ccc2nnnc2c1', 'c1ccc(C2(c3ccccc3)c3cc4c(cc3-c3sccc32)C(c2ccccc2)(c2ccccc2)c2ccsc2-4)cc1']","[0, 0, 0, 0, 0, 12, 5, 5, 6, 1, 21, 69, 20, 11, 12, 43, 36]"
P3HT,BTA2,-5.057777777777777,-2.989444444444445,-5.43,-3.3800000000000003,0.6,CF,DIO,100,4.5,4.5,1.22,60.0,"['CCCCCC', 'Cc1cccs1', 'Cc1cccs1', 'c1ccsc1']","['CC', 'O=C1CSC(=O)N1', 'CCCCCCCC', 'C', 'CCCCCC', 'c1ccc2nnnc2c1', 'c1ccc(C2(c3ccccc3)c3cc4c(cc3-c3sccc32)C(c2ccccc2)(c2ccccc2)c2ccsc2-4)cc1']","['CCCCCC', 'Cc1cccs1', 'Cc1cccs1', 'c1ccsc1', '.', 'CC', 'O=C1CSC(=O)N1', 'CCCCCCCC', 'C', 'CCCCCC', 'c1ccc2nnnc2c1', 'c1ccc(C2(c3ccccc3)c3cc4c(cc3-c3sccc32)C(c2ccccc2)(c2ccccc2)c2ccsc2-4)cc1']","[0, 0, 0, 0, 0, 12, 5, 5, 6, 1, 21, 146, 20, 11, 12, 43, 36]"
J71,ITIC,-5.353333333333333,-3.4318181818181825,-5.574146341463415,-3.915,1.0,CF,_,150,11.41,11.36,0.94,69.77,"['CCCCCCCCC(C)CCCCCC', 'Cc1cccs1', 'CCC[Si](CCC)(CCC)c1cccs1', 'c1ccsc1', 'Fc1cc2nnnc2cc1F', 'Cc1cc2cc3sccc3cc2s1']","['N#CCC#N', 'O=C1CCc2ccccc21', 'C', 'CCCCCC', 'c1ccc(C2(c3ccccc3)c3cc4c(cc3-c3sc5ccsc5c32)C(c2ccccc2)(c2ccccc2)c2c-4sc3ccsc23)cc1']","['CCCCCCCCC(C)CCCCCC', 'Cc1cccs1', 'CCC[Si](CCC)(CCC)c1cccs1', 'c1ccsc1', 'Fc1cc2nnnc2cc1F', 'Cc1cc2cc3sccc3cc2s1', '.', 'N#CCC#N', 'O=C1CCc2ccccc21', 'C', 'CCCCCC', 'c1ccc(C2(c3ccccc3)c3cc4c(cc3-c3sc5ccsc5c32)C(c2ccccc2)(c2ccccc2)c2c-4sc3ccsc23)cc1']","[0, 0, 0, 0, 0, 16, 5, 17, 6, 18, 8, 1, 9, 10, 11, 12, 14]"
P3HT,IDT-2BR,-5.057777777777777,-2.989444444444445,-5.52,-3.69,1.667,o-DCB,CN,25,5.12,5.1,0.84,68.1,"['CCCCCC', 'Cc1cccs1', 'Cc1cccs1', 'c1ccsc1']","['CC', 'O=C1CSC(=S)N1', 'C', 'CCCCCC', 'c1ccc2nsnc2c1', 'c1ccc(C2(c3ccccc3)c3cc4c(cc3-c3sccc32)C(c2ccccc2)(c2ccccc2)c2ccsc2-4)cc1']","['CCCCCC', 'Cc1cccs1', 'Cc1cccs1', 'c1ccsc1', '.', 'CC', 'O=C1CSC(=S)N1', 'C', 'CCCCCC', 'c1ccc2nsnc2c1', 'c1ccc(C2(c3ccccc3)c3cc4c(cc3-c3sccc32)C(c2ccccc2)(c2ccccc2)c2ccsc2-4)cc1']","[0, 0, 0, 0, 0, 0, 12, 5, 5, 6, 1, 21, 69, 11, 12, 34, 36]"
PBDTTT-EFT,IEICO-4F,-5.24,-3.66,-5.309971428571429,-3.851028571428572,0.667,CB,DIO,100,10.0,10.01,0.739,59.4,"['O', 'CCCCC(C)CC', 'C=O', 'CCCCC(C)CC', 'Cc1scc2scc(F)c12', 'c1ccsc1', 'Cc1cc2cc3sccc3cc2s1']","['CCCCC(C)CC', 'O', 'N#CCC#N', 'O=C1CCc2cc(F)c(F)cc21', 'C', 'CCCCCC', 'c1ccsc1', 'c1ccc(C2(c3ccccc3)c3cc4c(cc3-c3sccc32)C(c2ccccc2)(c2ccccc2)c2ccsc2-4)cc1']","['O', 'CCCCC(C)CC', 'C=O', 'CCCCC(C)CC', 'Cc1scc2scc(F)c12', 'c1ccsc1', 'Cc1cc2cc3sccc3cc2s1', '.', 'CCCCC(C)CC', 'O', 'N#CCC#N', 'O=C1CCc2cc(F)c(F)cc21', 'C', 'CCCCCC', 'c1ccsc1', 'c1ccc(C2(c3ccccc3)c3cc4c(cc3-c3sccc32)C(c2ccccc2)(c2ccccc2)c2ccsc2-4)cc1']","[0, 2, 3, 4, 3, 33, 6, 8, 1, 3, 2, 9, 39, 11, 12, 6, 36]"
J52,IEICO-4F,-5.218571428571429,-3.341428571428572,-5.309971428571429,-3.851028571428572,0.667,CB,DIO,100,9.4,9.4,0.734,58.5,"['CCCCCCCCC(C)CCCCCC', 'CCCCC(C)CC', 'CCCCC(C)CC', 'c1ccsc1', 'Cc1cccs1', 'Fc1cc2nnnc2cc1F', 'Cc1cc2cc3sccc3cc2s1']","['CCCCC(C)CC', 'O', 'N#CCC#N', 'O=C1CCc2cc(F)c(F)cc21', 'C', 'CCCCCC', 'c1ccsc1', 'c1ccc(C2(c3ccccc3)c3cc4c(cc3-c3sccc32)C(c2ccccc2)(c2ccccc2)c2ccsc2-4)cc1']","['CCCCCCCCC(C)CCCCCC', 'CCCCC(C)CC', 'CCCCC(C)CC', 'c1ccsc1', 'Cc1cccs1', 'Fc1cc2nnnc2cc1F', 'Cc1cc2cc3sccc3cc2s1', '.', 'CCCCC(C)CC', 'O', 'N#CCC#N', 'O=C1CCc2cc(F)c(F)cc21', 'C', 'CCCCCC', 'c1ccsc1', 'c1ccc(C2(c3ccccc3)c3cc4c(cc3-c3sccc32)C(c2ccccc2)(c2ccccc2)c2ccsc2-4)cc1']","[0, 16, 3, 3, 6, 5, 18, 8, 1, 3, 2, 9, 39, 11, 12, 6, 36]"
PffT2-FTAZ-2DT,IEIC,-5.28,-3.37,-5.455,-3.8625,1.0,CB,_,90,7.2,7.18,0.998,59.0,"['CCC', 'CCCCCCCCCCCCC(C)CCCCCCCCCC', 'Cc1cc(F)cs1', 'Cc1cccs1', 'Fc1ccsc1', 'c1ccsc1', 'Fc1cc2nnnc2cc1F']","['N#CCC#N', 'O=C1CCc2ccccc21', 'C', 'CCCCC(C)CC', 'CCCCCC', 'c1ccsc1', 'c1ccc(C2(c3ccccc3)c3cc4c(cc3-c3sccc32)C(c2ccccc2)(c2ccccc2)c2ccsc2-4)cc1']","['CCC', 'CCCCCCCCCCCCC(C)CCCCCCCCCC', 'Cc1cc(F)cs1', 'Cc1cccs1', 'Fc1ccsc1', 'c1ccsc1', 'Fc1cc2nnnc2cc1F', '.', 'N#CCC#N', 'O=C1CCc2ccccc21', 'C', 'CCCCC(C)CC', 'CCCCCC', 'c1ccsc1', 'c1ccc(C2(c3ccccc3)c3cc4c(cc3-c3sccc32)C(c2ccccc2)(c2ccccc2)c2ccsc2-4)cc1']","[0, 0, 100, 114, 153, 5, 23, 6, 18, 1, 9, 10, 11, 3, 12, 6, 36]"
PTB7-Th,IEIC1,-5.204782608695651,-3.5391891891891896,-5.44,-3.87,1.667,DCB,CN,25,3.9,3.66,0.84,44.0,"['O', 'CCCCC(C)CC', 'C=O', 'CCCCC(C)CC', 'Cc1scc2scc(F)c12', 'c1ccsc1', 'Cc1cc2cc3sccc3cc2s1']","['N#CCC#N', 'O=C1CCc2ccccc21', 'C', 'CCCCCC', 'c1ccsc1', 'c1ccc(C2(c3ccccc3)c3cc4c(cc3-c3sccc32)C(c2ccccc2)(c2ccccc2)c2ccsc2-4)cc1']","['O', 'CCCCC(C)CC', 'C=O', 'CCCCC(C)CC', 'Cc1scc2scc(F)c12', 'c1ccsc1', 'Cc1cc2cc3sccc3cc2s1', '.', 'N#CCC#N', 'O=C1CCc2ccccc21', 'C', 'CCCCCC', 'c1ccsc1', 'c1ccc(C2(c3ccccc3)c3cc4c(cc3-c3sccc32)C(c2ccccc2)(c2ccccc2)c2ccsc2-4)cc1']","[0, 0, 0, 2, 3, 4, 3, 33, 6, 8, 1, 9, 10, 11, 12, 6, 36]"
PTB7-Th,IEIC3,-5.204782608695651,-3.5391891891891896,-5.46,-3.86,0.667,DCB,CN,25,7.4,6.9,0.93,58.0,"['O', 'CCCCC(C)CC', 'C=O', 'CCCCC(C)CC', 'Cc1scc2scc(F)c12', 'c1ccsc1', 'Cc1cc2cc3sccc3cc2s1']","['N#CCC#N', 'O=C1CCc2ccccc21', 'C', 'CCCCCC', 'c1ccsc1', 'c1ccc(C2(c3ccccc3)c3cc4c(cc3-c3sccc32)C(c2ccccc2)(c2ccccc2)c2ccsc2-4)cc1']","['O', 'CCCCC(C)CC', 'C=O', 'CCCCC(C)CC', 'Cc1scc2scc(F)c12', 'c1ccsc1', 'Cc1cc2cc3sccc3cc2s1', '.', 'N#CCC#N', 'O=C1CCc2ccccc21', 'C', 'CCCCCC', 'c1ccsc1', 'c1ccc(C2(c3ccccc3)c3cc4c(cc3-c3sccc32)C(c2ccccc2)(c2ccccc2)c2ccsc2-4)cc1']","[0, 0, 0, 2, 3, 4, 3, 33, 6, 8, 1, 9, 10, 11, 12, 6, 36]"
PTB7-Th,IEIC,-5.204782608695651,-3.5391891891891896,-5.455,-3.8625,0.667,DCB,_,25,6.0,5.73,0.95,49.0,"['O', 'CCCCC(C)CC', 'C=O', 'CCCCC(C)CC', 'Cc1scc2scc(F)c12', 'c1ccsc1', 'Cc1cc2cc3sccc3cc2s1']","['N#CCC#N', 'O=C1CCc2ccccc21', 'C', 'CCCCC(C)CC', 'CCCCCC', 'c1ccsc1', 'c1ccc(C2(c3ccccc3)c3cc4c(cc3-c3sccc32)C(c2ccccc2)(c2ccccc2)c2ccsc2-4)cc1']","['O', 'CCCCC(C)CC', 'C=O', 'CCCCC(C)CC', 'Cc1scc2scc(F)c12', 'c1ccsc1', 'Cc1cc2cc3sccc3cc2s1', '.', 'N#CCC#N', 'O=C1CCc2ccccc21', 'C', 'CCCCC(C)CC', 'CCCCCC', 'c1ccsc1', 'c1ccc(C2(c3ccccc3)c3cc4c(cc3-c3sccc32)C(c2ccccc2)(c2ccccc2)c2ccsc2-4)cc1']","[0, 0, 2, 3, 4, 3, 33, 6, 8, 1, 9, 10, 11, 3, 12, 6, 36]"
PBDB-T,IT-M,-5.297714285714285,-3.4170000000000003,-5.513571428571429,-3.808,1.0,CB,DIO,160,12.05,12.05,0.94,73.5,"['CCCCC(C)CC', 'Cc1cccs1', 'c1ccsc1', 'O=C1c2cscc2C(=O)c2cscc21', 'Cc1cc2cc3sccc3cc2s1']","['N#CCC#N', 'Cc1ccc2c(c1)CCC2=O', 'C', 'CCCCCC', 'c1ccc(C2(c3ccccc3)c3cc4c(cc3-c3sc5ccsc5c32)C(c2ccccc2)(c2ccccc2)c2c-4sc3ccsc23)cc1']","['CCCCC(C)CC', 'Cc1cccs1', 'c1ccsc1', 'O=C1c2cscc2C(=O)c2cscc21', 'Cc1cc2cc3sccc3cc2s1', '.', 'N#CCC#N', 'Cc1ccc2c(c1)CCC2=O', 'C', 'CCCCCC', 'c1ccc(C2(c3ccccc3)c3cc4c(cc3-c3sc5ccsc5c32)C(c2ccccc2)(c2ccccc2)c2c-4sc3ccsc23)cc1']","[0, 0, 0, 0, 0, 0, 3, 5, 6, 29, 8, 1, 9, 15, 11, 12, 14]"
PBDB-T,IT-DM,-5.297714285714285,-3.4170000000000003,-5.515,-3.855,1.0,CB,DIO,160,11.29,11.29,0.97,70.6,"['CCCCC(C)CC', 'Cc1cccs1', 'c1ccsc1', 'O=C1c2cscc2C(=O)c2cscc21', 'Cc1cc2cc3sccc3cc2s1']","['N#CCC#N', 'Cc1cc2c(cc1C)C(=O)CC2', 'C', 'CCCCCC', 'c1ccc(C2(c3ccccc3)c3cc4c(cc3-c3sc5ccsc5c32)C(c2ccccc2)(c2ccccc2)c2c-4sc3ccsc23)cc1']","['CCCCC(C)CC', 'Cc1cccs1', 'c1ccsc1', 'O=C1c2cscc2C(=O)c2cscc21', 'Cc1cc2cc3sccc3cc2s1', '.', 'N#CCC#N', 'Cc1cc2c(cc1C)C(=O)CC2', 'C', 'CCCCCC', 'c1ccc(C2(c3ccccc3)c3cc4c(cc3-c3sc5ccsc5c32)C(c2ccccc2)(c2ccccc2)c2c-4sc3ccsc23)cc1']","[0, 0, 0, 0, 0, 0, 3, 5, 6, 29, 8, 1, 9, 154, 11, 12, 14]"
PBDB-ST,ITIC-SC8,-5.37,-3.59,-5.7,-3.9,1.0,DCB,CBA,110,7.79,7.79,0.9,60.0,"['CCCCC(C)CC', 'CCCCC(C)CC', 'S', 'Cc1cccs1', 'c1ccsc1', 'O=C1c2cscc2C(=O)c2cscc21', 'Cc1cc2cc3sccc3cc2s1']","['CCCCCCCC', 'N#CCC#N', 'O=C1CCc2ccccc21', 'C', 'S', 'c1ccc(C2(c3ccccc3)c3cc4c(cc3-c3sc5ccsc5c32)C(c2ccccc2)(c2ccccc2)c2c-4sc3ccsc23)cc1']","['CCCCC(C)CC', 'CCCCC(C)CC', 'S', 'Cc1cccs1', 'c1ccsc1', 'O=C1c2cscc2C(=O)c2cscc21', 'Cc1cc2cc3sccc3cc2s1', '.', 'CCCCCCCC', 'N#CCC#N', 'O=C1CCc2ccccc21', 'C', 'S', 'c1ccc(C2(c3ccccc3)c3cc4c(cc3-c3sc5ccsc5c32)C(c2ccccc2)(c2ccccc2)c2c-4sc3ccsc23)cc1']","[0, 0, 0, 3, 3, 24, 5, 6, 29, 8, 1, 20, 9, 10, 11, 24, 14]"
PBDB-ST,ITIC-SC2C6,-5.37,-3.59,-5.74,-3.86,1.0,DCB,CBA,110,9.16,9.02,0.92,64.0,"['CCCCC(C)CC', 'CCCCC(C)CC', 'S', 'Cc1cccs1', 'c1ccsc1', 'O=C1c2cscc2C(=O)c2cscc21', 'Cc1cc2cc3sccc3cc2s1']","['CCCCC(C)CC', 'N#CCC#N', 'O=C1CCc2ccccc21', 'C', 'S', 'c1ccc(C2(c3ccccc3)c3cc4c(cc3-c3sc5ccsc5c32)C(c2ccccc2)(c2ccccc2)c2c-4sc3ccsc23)cc1']","['CCCCC(C)CC', 'CCCCC(C)CC', 'S', 'Cc1cccs1', 'c1ccsc1', 'O=C1c2cscc2C(=O)c2cscc21', 'Cc1cc2cc3sccc3cc2s1', '.', 'CCCCC(C)CC', 'N#CCC#N', 'O=C1CCc2ccccc21', 'C', 'S', 'c1ccc(C2(c3ccccc3)c3cc4c(cc3-c3sc5ccsc5c32)C(c2ccccc2)(c2ccccc2)c2c-4sc3ccsc23)cc1']","[0, 0, 0, 3, 3, 24, 5, 6, 29, 8, 1, 3, 9, 10, 11, 24, 14]"
PTB7-Th,ITIC-Th,-5.204782608695651,-3.5391891891891896,-5.673333333333334,-3.908888888888889,0.769,o-DCB,CN,25,8.7,8.67,0.8,68.0,"['O', 'CCCCC(C)CC', 'C=O', 'CCCCC(C)CC', 'Cc1scc2scc(F)c12', 'c1ccsc1', 'Cc1cc2cc3sccc3cc2s1']","['N#CCC#N', 'O=C1CCc2ccccc21', 'C', 'CCCCCC', 'c1csc(C2(c3cccs3)c3cc4c(cc3-c3sc5ccsc5c32)C(c2cccs2)(c2cccs2)c2c-4sc3ccsc23)c1']","['O', 'CCCCC(C)CC', 'C=O', 'CCCCC(C)CC', 'Cc1scc2scc(F)c12', 'c1ccsc1', 'Cc1cc2cc3sccc3cc2s1', '.', 'N#CCC#N', 'O=C1CCc2ccccc21', 'C', 'CCCCCC', 'c1csc(C2(c3cccs3)c3cc4c(cc3-c3sc5ccsc5c32)C(c2cccs2)(c2cccs2)c2c-4sc3ccsc23)c1']","[0, 0, 0, 0, 2, 3, 4, 3, 33, 6, 8, 1, 9, 10, 11, 12, 59]"
PDBT-T1,ITIC-Th,-5.36,-3.43,-5.673333333333334,-3.908888888888889,1.0,CF,CN,25,9.6,9.59,0.88,67.1,"['CCCCCCCC', 'CCCCC(C)CC', 'Cc1cccs1', 'c1ccsc1', 'O=C1c2cscc2C(=O)c2cscc21', 'Cc1cc2sc3cc4c(cc3c2s1)sc1ccsc14']","['N#CCC#N', 'O=C1CCc2ccccc21', 'C', 'CCCCCC', 'c1csc(C2(c3cccs3)c3cc4c(cc3-c3sc5ccsc5c32)C(c2cccs2)(c2cccs2)c2c-4sc3ccsc23)c1']","['CCCCCCCC', 'CCCCC(C)CC', 'Cc1cccs1', 'c1ccsc1', 'O=C1c2cscc2C(=O)c2cscc21', 'Cc1cc2sc3cc4c(cc3c2s1)sc1ccsc14', '.', 'N#CCC#N', 'O=C1CCc2ccccc21', 'C', 'CCCCCC', 'c1csc(C2(c3cccs3)c3cc4c(cc3-c3sc5ccsc5c32)C(c2cccs2)(c2cccs2)c2c-4sc3ccsc23)c1']","[0, 0, 0, 0, 0, 20, 3, 5, 6, 29, 30, 1, 9, 10, 11, 12, 59]"
P2F-EH,ITIC,-5.36,-3.04,-5.574146341463415,-3.915,1.0,CF,_,100,6.13,6.15,0.983,50.48,"['CCCCC(C)CC', 'CCCCCCCC', 'Cc1cccs1', 'c1ccsc1', 'O=C1NC(=O)c2cc3nnnc3cc21', 'Fc1cccc(F)c1', 'Cc1cc2cc3sccc3cc2s1']","['N#CCC#N', 'O=C1CCc2ccccc21', 'C', 'CCCCCC', 'c1ccc(C2(c3ccccc3)c3cc4c(cc3-c3sc5ccsc5c32)C(c2ccccc2)(c2ccccc2)c2c-4sc3ccsc23)cc1']","['CCCCC(C)CC', 'CCCCCCCC', 'Cc1cccs1', 'c1ccsc1', 'O=C1NC(=O)c2cc3nnnc3cc21', 'Fc1cccc(F)c1', 'Cc1cc2cc3sccc3cc2s1', '.', 'N#CCC#N', 'O=C1CCc2ccccc21', 'C', 'CCCCCC', 'c1ccc(C2(c3ccccc3)c3cc4c(cc3-c3sc5ccsc5c32)C(c2ccccc2)(c2ccccc2)c2c-4sc3ccsc23)cc1']","[0, 0, 0, 0, 3, 20, 5, 6, 116, 35, 8, 1, 9, 10, 11, 12, 14]"
P2F-Ehp,ITIC,-5.38,-3.06,-5.574146341463415,-3.915,1.0,CF,_,100,7.28,7.25,1.017,54.79,"['CCCCC(CC)CC', 'CCCCCCCC', 'CCCCC(C)CC', 'Cc1cccs1', 'c1ccsc1', 'O=C1NC(=O)c2cc3nnnc3cc21', 'Fc1cccc(F)c1', 'Cc1cc2cc3sccc3cc2s1']","['N#CCC#N', 'O=C1CCc2ccccc21', 'C', 'CCCCCC', 'c1ccc(C2(c3ccccc3)c3cc4c(cc3-c3sc5ccsc5c32)C(c2ccccc2)(c2ccccc2)c2c-4sc3ccsc23)cc1']","['CCCCC(CC)CC', 'CCCCCCCC', 'CCCCC(C)CC', 'Cc1cccs1', 'c1ccsc1', 'O=C1NC(=O)c2cc3nnnc3cc21', 'Fc1cccc(F)c1', 'Cc1cc2cc3sccc3cc2s1', '.', 'N#CCC#N', 'O=C1CCc2ccccc21', 'C', 'CCCCCC', 'c1ccc(C2(c3ccccc3)c3cc4c(cc3-c3sc5ccsc5c32)C(c2ccccc2)(c2ccccc2)c2c-4sc3ccsc23)cc1']","[0, 0, 0, 155, 20, 3, 5, 6, 116, 35, 8, 1, 9, 10, 11, 12, 14]"
P2F-Ehp,IT-F,-5.38,-3.06,-5.66,-3.95,1.0,CF,_,100,10.06,10.04,0.959,61.94,"['CCCCC(CC)CC', 'CCCCCCCC', 'CCCCC(C)CC', 'Cc1cccs1', 'c1ccsc1', 'O=C1NC(=O)c2cc3nnnc3cc21', 'Fc1cccc(F)c1', 'Cc1cc2cc3sccc3cc2s1']","['N#CCC#N', 'O=C1CCc2ccc(F)cc21', 'C', 'CCCCCC', 'c1ccc(C2(c3ccccc3)c3cc4c(cc3-c3sc5ccsc5c32)C(c2ccccc2)(c2ccccc2)c2c-4sc3ccsc23)cc1']","['CCCCC(CC)CC', 'CCCCCCCC', 'CCCCC(C)CC', 'Cc1cccs1', 'c1ccsc1', 'O=C1NC(=O)c2cc3nnnc3cc21', 'Fc1cccc(F)c1', 'Cc1cc2cc3sccc3cc2s1', '.', 'N#CCC#N', 'O=C1CCc2ccc(F)cc21', 'C', 'CCCCCC', 'c1ccc(C2(c3ccccc3)c3cc4c(cc3-c3sc5ccsc5c32)C(c2ccccc2)(c2ccccc2)c2c-4sc3ccsc23)cc1']","[0, 0, 0, 155, 20, 3, 5, 6, 116, 35, 8, 1, 9, 60, 11, 12, 14]"
P2F-Ehp,IT-2F,-5.38,-3.06,-5.665,-4.095,1.0,CF,_,100,12.96,12.97,0.891,74.09,"['CCCCC(CC)CC', 'CCCCCCCC', 'CCCCC(C)CC', 'Cc1cccs1', 'c1ccsc1', 'O=C1NC(=O)c2cc3nnnc3cc21', 'Fc1cccc(F)c1', 'Cc1cc2cc3sccc3cc2s1']","['N#CCC#N', 'O=C1CCc2cc(F)c(F)cc21', 'C', 'CCCCCC', 'c1ccc(C2(c3ccccc3)c3cc4c(cc3-c3sc5ccsc5c32)C(c2ccccc2)(c2ccccc2)c2c-4sc3ccsc23)cc1']","['CCCCC(CC)CC', 'CCCCCCCC', 'CCCCC(C)CC', 'Cc1cccs1', 'c1ccsc1', 'O=C1NC(=O)c2cc3nnnc3cc21', 'Fc1cccc(F)c1', 'Cc1cc2cc3sccc3cc2s1', '.', 'N#CCC#N', 'O=C1CCc2cc(F)c(F)cc21', 'C', 'CCCCCC', 'c1ccc(C2(c3ccccc3)c3cc4c(cc3-c3sc5ccsc5c32)C(c2ccccc2)(c2ccccc2)c2c-4sc3ccsc23)cc1']","[0, 0, 0, 155, 20, 3, 5, 6, 116, 35, 8, 1, 9, 39, 11, 12, 14]"
PB3T,IT-M,-5.39,-3.37,-5.513571428571429,-3.808,1.5,Anisole,_,25,11.9,11.91,1.0,63.0,"['O', 'CCCCC(C)CC', 'CCCCCCCC', 'C=O', 'S', 'Cc1cccs1', 'c1ccsc1', 'c1ccsc1', 'Cc1cc2cc3sccc3cc2s1']","['N#CCC#N', 'Cc1ccc2c(c1)CCC2=O', 'C', 'CCCCCC', 'c1ccc(C2(c3ccccc3)c3cc4c(cc3-c3sc5ccsc5c32)C(c2ccccc2)(c2ccccc2)c2c-4sc3ccsc23)cc1']","['O', 'CCCCC(C)CC', 'CCCCCCCC', 'C=O', 'S', 'Cc1cccs1', 'c1ccsc1', 'c1ccsc1', 'Cc1cc2cc3sccc3cc2s1', '.', 'N#CCC#N', 'Cc1ccc2c(c1)CCC2=O', 'C', 'CCCCCC', 'c1ccc(C2(c3ccccc3)c3cc4c(cc3-c3sc5ccsc5c32)C(c2ccccc2)(c2ccccc2)c2c-4sc3ccsc23)cc1']","[0, 0, 2, 3, 20, 4, 24, 5, 6, 6, 8, 1, 9, 15, 11, 12, 14]"
PBDB-T,IT-M,-5.297714285714285,-3.4170000000000003,-5.513571428571429,-3.808,1.0,CB,DIO,100,12.1,12.1,0.953,73.2,"['CCCCC(C)CC', 'Cc1cccs1', 'c1ccsc1', 'O=C1c2cscc2C(=O)c2cscc21', 'Cc1cc2cc3sccc3cc2s1']","['N#CCC#N', 'Cc1ccc2c(c1)CCC2=O', 'C', 'CCCCCC', 'c1ccc(C2(c3ccccc3)c3cc4c(cc3-c3sc5ccsc5c32)C(c2ccccc2)(c2ccccc2)c2c-4sc3ccsc23)cc1']","['CCCCC(C)CC', 'Cc1cccs1', 'c1ccsc1', 'O=C1c2cscc2C(=O)c2cscc21', 'Cc1cc2cc3sccc3cc2s1', '.', 'N#CCC#N', 'Cc1ccc2c(c1)CCC2=O', 'C', 'CCCCCC', 'c1ccc(C2(c3ccccc3)c3cc4c(cc3-c3sc5ccsc5c32)C(c2ccccc2)(c2ccccc2)c2c-4sc3ccsc23)cc1']","[0, 0, 0, 0, 0, 0, 3, 5, 6, 29, 8, 1, 9, 15, 11, 12, 14]"
PBDB-T,ITIC,-5.297714285714285,-3.4170000000000003,-5.574146341463415,-3.915,1.0,CB,DIO,160,10.02,10.02,0.86,64.29,"['CCCCC(C)CC', 'Cc1cccs1', 'c1ccsc1', 'O=C1c2cscc2C(=O)c2cscc21', 'Cc1cc2cc3sccc3cc2s1']","['N#CCC#N', 'O=C1CCc2ccccc21', 'C', 'CCCCCC', 'c1ccc(C2(c3ccccc3)c3cc4c(cc3-c3sc5ccsc5c32)C(c2ccccc2)(c2ccccc2)c2c-4sc3ccsc23)cc1']","['CCCCC(C)CC', 'Cc1cccs1', 'c1ccsc1', 'O=C1c2cscc2C(=O)c2cscc21', 'Cc1cc2cc3sccc3cc2s1', '.', 'N#CCC#N', 'O=C1CCc2ccccc21', 'C', 'CCCCCC', 'c1ccc(C2(c3ccccc3)c3cc4c(cc3-c3sc5ccsc5c32)C(c2ccccc2)(c2ccccc2)c2c-4sc3ccsc23)cc1']","[0, 0, 0, 0, 0, 0, 3, 5, 6, 29, 8, 1, 9, 10, 11, 12, 14]"
PBDB-T,ITIC,-5.297714285714285,-3.4170000000000003,-5.574146341463415,-3.915,1.0,CB,DIO,110,10.54,10.49,0.896,70.73,"['CCCCC(C)CC', 'Cc1cccs1', 'c1ccsc1', 'O=C1c2cscc2C(=O)c2cscc21', 'Cc1cc2cc3sccc3cc2s1']","['N#CCC#N', 'O=C1CCc2ccccc21', 'C', 'CCCCCC', 'c1ccc(C2(c3ccccc3)c3cc4c(cc3-c3sc5ccsc5c32)C(c2ccccc2)(c2ccccc2)c2c-4sc3ccsc23)cc1']","['CCCCC(C)CC', 'Cc1cccs1', 'c1ccsc1', 'O=C1c2cscc2C(=O)c2cscc21', 'Cc1cc2cc3sccc3cc2s1', '.', 'N#CCC#N', 'O=C1CCc2ccccc21', 'C', 'CCCCCC', 'c1ccc(C2(c3ccccc3)c3cc4c(cc3-c3sc5ccsc5c32)C(c2ccccc2)(c2ccccc2)c2c-4sc3ccsc23)cc1']","[0, 0, 0, 0, 0, 0, 3, 5, 6, 29, 8, 1, 9, 10, 11, 12, 14]"
PBDB-T,DICTiF,-5.297714285714285,-3.4170000000000003,-5.55,-3.62,0.714,CF,DPE,80,6.97,7.13,0.98,65.0,"['CCCCC(C)CC', 'Cc1cccs1', 'c1ccsc1', 'O=C1c2cscc2C(=O)c2cscc21', 'Cc1cc2cc3sccc3cc2s1']","['N#CCC#N', 'O=C1CCc2ccccc21', 'C', 'c1ccsc1', 'CCCCC(CC)CC1(CC(CC)CCCC)c2ccccc2-c2ccccc21']","['CCCCC(C)CC', 'Cc1cccs1', 'c1ccsc1', 'O=C1c2cscc2C(=O)c2cscc21', 'Cc1cc2cc3sccc3cc2s1', '.', 'N#CCC#N', 'O=C1CCc2ccccc21', 'C', 'c1ccsc1', 'CCCCC(CC)CC1(CC(CC)CCCC)c2ccccc2-c2ccccc21']","[0, 0, 0, 0, 0, 0, 3, 5, 6, 29, 8, 1, 9, 10, 11, 6, 157]"
PffBT4T-2OD,BAF-4CN,-5.32,-3.695,-5.7,-3.6,0.741,o-DCB:CB (1:1),DIO,25,8.4,8.44,0.769,70.7,"['CCCCCCCCCCC(C)CCCCCCCC', 'CCCCCCCCCCC(C)CCCCCCCC', 'Cc1cccs1', 'Cc1cccs1', 'c1ccsc1', 'c1ccsc1', 'Fc1cc2nsnc2cc1F']","['CCCCCC', 'N#CC(C#N)=c1nc(=O)/c(=C\\c2cccc3nsnc23)s1', 'CCCCCCCCCCC1(CCCCCCCCCC)c2ccccc2-c2ccccc21']","['CCCCCCCCCCC(C)CCCCCCCC', 'CCCCCCCCCCC(C)CCCCCCCC', 'Cc1cccs1', 'Cc1cccs1', 'c1ccsc1', 'c1ccsc1', 'Fc1cc2nsnc2cc1F', '.', 'CCCCCC', 'N#CC(C#N)=c1nc(=O)/c(=C\\c2cccc3nsnc23)s1', 'CCCCCCCCCCC1(CCCCCCCCCC)c2ccccc2-c2ccccc21']","[0, 0, 0, 0, 0, 0, 42, 42, 5, 5, 6, 6, 52, 1, 12, 125, 158]"
PTB7-Th,DCF-2HT,-5.204782608695651,-3.5391891891891896,-5.67,-3.72,0.714,CF,PN,25,4.83,4.78,0.96,40.04,"['O', 'CCCCC(C)CC', 'C=O', 'CCCCC(C)CC', 'Cc1scc2scc(F)c12', 'c1ccsc1', 'Cc1cc2cc3sccc3cc2s1']","['N#CCC#N', 'O=C1CCc2ccccc21', 'C', 'CCCCCC', 'c1ccsc1', 'CCCCCCCCC1(CCCCCCCC)c2ccccc2-c2ccccc21']","['O', 'CCCCC(C)CC', 'C=O', 'CCCCC(C)CC', 'Cc1scc2scc(F)c12', 'c1ccsc1', 'Cc1cc2cc3sccc3cc2s1', '.', 'N#CCC#N', 'O=C1CCc2ccccc21', 'C', 'CCCCCC', 'c1ccsc1', 'CCCCCCCCC1(CCCCCCCC)c2ccccc2-c2ccccc21']","[0, 0, 0, 2, 3, 4, 3, 33, 6, 8, 1, 9, 10, 11, 12, 6, 70]"
FTAZ,ITIC2,-5.43,-3.3200000000000003,-5.43,-3.8,0.769,CF,_,110,11.0,11.0,0.925,63.0,"['CCCCCCC(C)CCCC', 'S', 'Cc1cc2cc3sccc3cc2s1', 'Cc1cccs1', 'c1ccsc1', 'Fc1cc2nn(S)nc2cc1F']","['N#CCC#N', 'O=C1CCc2ccccc21', 'C', 'CCCCC(C)CC', 'CCCCC(C)CC', 'CCCCCC', 'c1ccsc1', 'c1ccc(C2(c3ccccc3)c3ccsc3-c3sc4cc5c6c(sc5cc4c32)-c2sccc2C6(c2ccccc2)c2ccccc2)cc1']","['CCCCCCC(C)CCCC', 'S', 'Cc1cc2cc3sccc3cc2s1', 'Cc1cccs1', 'c1ccsc1', 'Fc1cc2nn(S)nc2cc1F', '.', 'N#CCC#N', 'O=C1CCc2ccccc21', 'C', 'CCCCC(C)CC', 'CCCCC(C)CC', 'CCCCCC', 'c1ccsc1', 'c1ccc(C2(c3ccccc3)c3ccsc3-c3sc4cc5c6c(sc5cc4c32)-c2sccc2C6(c2ccccc2)c2ccccc2)cc1']","[0, 0, 32, 24, 8, 5, 6, 57, 1, 9, 10, 11, 3, 3, 12, 6, 27]"