Donor,Acceptor,HOMO_D_eV,LUMO_D_eV,HOMO_A_eV,LUMO_A_eV,D_A_ratio_m_m,solvent,solvent_additive,annealing_temperature,PCE_percent,calc_PCE_percent,Voc_V,FF_percent,Donor_BRICS,Acceptor_BRICS,DA_pair_BRICS,DA_tokenized_BRICS
PTB7-Th,BT-IC,-5.204782608695651,-3.5391891891891896,-5.3775,-3.8575,0.667,CB:CF (9:1),_,150,8.3,8.45,0.81,59.6,"['O', 'CCCCC(C)CC', 'C=O', 'CCCCC(C)CC', 'Cc1scc2scc(F)c12', 'c1ccsc1', 'Cc1cc2cc3sccc3cc2s1']","['CCCCC(C)CC', 'O', 'N#CCC#N', 'O=C1CCc2ccccc21', 'C', 'CCCCCC', 'c1ccc(C2(c3ccccc3)c3ccsc3-c3sc4cc5c6c(sc5cc4c32)-c2sccc2C6(c2ccccc2)c2ccccc2)cc1']","['O', 'CCCCC(C)CC', 'C=O', 'CCCCC(C)CC', 'Cc1scc2scc(F)c12', 'c1ccsc1', 'Cc1cc2cc3sccc3cc2s1', '.', 'CCCCC(C)CC', 'O', 'N#CCC#N', 'O=C1CCc2ccccc21', 'C', 'CCCCCC', 'c1ccc(C2(c3ccccc3)c3ccsc3-c3sc4cc5c6c(sc5cc4c32)-c2sccc2C6(c2ccccc2)c2ccccc2)cc1']","[0, 0, 2, 3, 4, 3, 33, 6, 8, 1, 3, 2, 9, 10, 11, 12, 27]"
PTB7-Th,BT-CIC,-5.204782608695651,-3.5391891891891896,-5.32,-3.85,0.667,CB:CF (9:1),_,150,11.2,11.18,0.7,71.0,"['O', 'CCCCC(C)CC', 'C=O', 'CCCCC(C)CC', 'Cc1scc2scc(F)c12', 'c1ccsc1', 'Cc1cc2cc3sccc3cc2s1']","['CCCCC(C)CC', 'O', 'N#CCC#N', 'O=C1CCc2cc(O)c(Cl)cc21', 'O=C1CCc2cc(Cl)c(Cl)cc21', 'C', 'CCCCCC', 'c1ccc(C2(c3ccccc3)c3ccsc3-c3sc4cc5c6c(sc5cc4c32)-c2sccc2C6(c2ccccc2)c2ccccc2)cc1']","['O', 'CCCCC(C)CC', 'C=O', 'CCCCC(C)CC', 'Cc1scc2scc(F)c12', 'c1ccsc1', 'Cc1cc2cc3sccc3cc2s1', '.', 'CCCCC(C)CC', 'O', 'N#CCC#N', 'O=C1CCc2cc(O)c(Cl)cc21', 'O=C1CCc2cc(Cl)c(Cl)cc21', 'C', 'CCCCCC', 'c1ccc(C2(c3ccccc3)c3ccsc3-c3sc4cc5c6c(sc5cc4c32)-c2sccc2C6(c2ccccc2)c2ccccc2)cc1']","[0, 2, 3, 4, 3, 33, 6, 8, 1, 3, 2, 9, 159, 38, 11, 12, 27]"
FTAZ,IHIC1,-5.43,-3.3200000000000003,-5.47,-3.75,0.667,CF,_,25,9.21,9.22,0.95,67.9,"['CCCCCCC(C)CCCC', 'S', 'Cc1cc2cc3sccc3cc2s1', 'Cc1cccs1', 'c1ccsc1', 'Fc1cc2nn(S)nc2cc1F']","['N#CCC#N', 'O=C1CCc2ccccc21', 'C', 'CCCCCC', 'c1ccc(C2(c3ccccc3)c3ccsc3-c3c2ccc2c4c(ccc32)C(c2ccccc2)(c2ccccc2)c2ccsc2-4)cc1']","['CCCCCCC(C)CCCC', 'S', 'Cc1cc2cc3sccc3cc2s1', 'Cc1cccs1', 'c1ccsc1', 'Fc1cc2nn(S)nc2cc1F', '.', 'N#CCC#N', 'O=C1CCc2ccccc21', 'C', 'CCCCCC', 'c1ccc(C2(c3ccccc3)c3ccsc3-c3c2ccc2c4c(ccc32)C(c2ccccc2)(c2ccccc2)c2ccsc2-4)cc1']","[0, 0, 0, 0, 0, 32, 24, 8, 5, 6, 57, 1, 9, 10, 11, 12, 72]"
PBDB-T,NTIC,-5.297714285714285,-3.4170000000000003,-5.58,-3.76,1.25,CF,_,25,8.63,8.63,0.935,68.1,"['CCCCC(C)CC', 'Cc1cccs1', 'c1ccsc1', 'O=C1c2cscc2C(=O)c2cscc21', 'Cc1cc2cc3sccc3cc2s1']","['N#CCC#N', 'O=C1CCc2ccccc21', 'C', 'CCCCCC', 'c1ccc(C2(c3ccccc3)c3ccsc3-c3c2ccc2c4c(ccc32)C(c2ccccc2)(c2ccccc2)c2ccsc2-4)cc1']","['CCCCC(C)CC', 'Cc1cccs1', 'c1ccsc1', 'O=C1c2cscc2C(=O)c2cscc21', 'Cc1cc2cc3sccc3cc2s1', '.', 'N#CCC#N', 'O=C1CCc2ccccc21', 'C', 'CCCCCC', 'c1ccc(C2(c3ccccc3)c3ccsc3-c3c2ccc2c4c(ccc32)C(c2ccccc2)(c2ccccc2)c2ccsc2-4)cc1']","[0, 0, 0, 0, 0, 0, 3, 5, 6, 29, 8, 1, 9, 10, 11, 12, 72]"
PBDB-T,NTIC-Me,-5.297714285714285,-3.4170000000000003,-5.53,-3.73,1.25,CF,_,25,8.3,8.88,0.963,66.2,"['CCCCC(C)CC', 'Cc1cccs1', 'c1ccsc1', 'O=C1c2cscc2C(=O)c2cscc21', 'Cc1cc2cc3sccc3cc2s1']","['N#CCC#N', 'Cc1ccc2c(c1)CCC2=O', 'C', 'CCCCCC', 'c1ccc(C2(c3ccccc3)c3ccsc3-c3c2ccc2c4c(ccc32)C(c2ccccc2)(c2ccccc2)c2ccsc2-4)cc1']","['CCCCC(C)CC', 'Cc1cccs1', 'c1ccsc1', 'O=C1c2cscc2C(=O)c2cscc21', 'Cc1cc2cc3sccc3cc2s1', '.', 'N#CCC#N', 'Cc1ccc2c(c1)CCC2=O', 'C', 'CCCCCC', 'c1ccc(C2(c3ccccc3)c3ccsc3-c3c2ccc2c4c(ccc32)C(c2ccccc2)(c2ccccc2)c2ccsc2-4)cc1']","[0, 0, 0, 0, 0, 0, 3, 5, 6, 29, 8, 1, 9, 15, 11, 12, 72]"
PBDB-T,NTIC-OMe,-5.297714285714285,-3.4170000000000003,-5.53,-3.7,1.25,CF,_,25,8.61,8.61,0.965,66.0,"['CCCCC(C)CC', 'Cc1cccs1', 'c1ccsc1', 'O=C1c2cscc2C(=O)c2cscc21', 'Cc1cc2cc3sccc3cc2s1']","['CO', 'N#CCC#N', 'O=C1CCc2ccccc21', 'C', 'CCCCCC', 'c1ccc(C2(c3ccccc3)c3ccsc3-c3c2ccc2c4c(ccc32)C(c2ccccc2)(c2ccccc2)c2ccsc2-4)cc1']","['CCCCC(C)CC', 'Cc1cccs1', 'c1ccsc1', 'O=C1c2cscc2C(=O)c2cscc21', 'Cc1cc2cc3sccc3cc2s1', '.', 'CO', 'N#CCC#N', 'O=C1CCc2ccccc21', 'C', 'CCCCCC', 'c1ccc(C2(c3ccccc3)c3ccsc3-c3c2ccc2c4c(ccc32)C(c2ccccc2)(c2ccccc2)c2ccsc2-4)cc1']","[0, 0, 0, 0, 0, 3, 5, 6, 29, 8, 1, 61, 9, 10, 11, 12, 72]"
PBDB-T,NTIC-F,-5.297714285714285,-3.4170000000000003,-5.52,-3.77,1.25,CF,_,25,8.1,8.1,0.812,66.3,"['CCCCC(C)CC', 'Cc1cccs1', 'c1ccsc1', 'O=C1c2cscc2C(=O)c2cscc21', 'Cc1cc2cc3sccc3cc2s1']","['N#CCC#N', 'O=C1CCc2ccc(F)cc21', 'C', 'CCCCCC', 'c1ccc(C2(c3ccccc3)c3ccsc3-c3c2ccc2c4c(ccc32)C(c2ccccc2)(c2ccccc2)c2ccsc2-4)cc1']","['CCCCC(C)CC', 'Cc1cccs1', 'c1ccsc1', 'O=C1c2cscc2C(=O)c2cscc21', 'Cc1cc2cc3sccc3cc2s1', '.', 'N#CCC#N', 'O=C1CCc2ccc(F)cc21', 'C', 'CCCCCC', 'c1ccc(C2(c3ccccc3)c3ccsc3-c3c2ccc2c4c(ccc32)C(c2ccccc2)(c2ccccc2)c2ccsc2-4)cc1']","[0, 0, 0, 0, 0, 0, 3, 5, 6, 29, 8, 1, 9, 60, 11, 12, 72]"
PBT1-C,IT-4F,-5.449999999999999,-3.41,-5.66875,-4.060416666666667,1.0,CB,DIO,25,10.9,10.97,0.79,70.5,"['CCCCCCC(C)CCCC', 'CCCCC(C)CC', 'CCCCCCCCCCC(C)CCCCCCCC', 'S', 'Cc1cccs1', 'c1ccsc1', 'O=C1c2cscc2C(=O)c2cscc21', 'c1ccccc1', 'Cc1cc2cc3sccc3cc2s1']","['N#CCC#N', 'O=C1CCc2cc(F)c(F)cc21', 'C', 'CCCCCC', 'c1ccc(C2(c3ccccc3)c3cc4c(cc3-c3sc5ccsc5c32)C(c2ccccc2)(c2ccccc2)c2c-4sc3ccsc23)cc1']","['CCCCCCC(C)CCCC', 'CCCCC(C)CC', 'CCCCCCCCCCC(C)CCCCCCCC', 'S', 'Cc1cccs1', 'c1ccsc1', 'O=C1c2cscc2C(=O)c2cscc21', 'c1ccccc1', 'Cc1cc2cc3sccc3cc2s1', '.', 'N#CCC#N', 'O=C1CCc2cc(F)c(F)cc21', 'C', 'CCCCCC', 'c1ccc(C2(c3ccccc3)c3cc4c(cc3-c3sc5ccsc5c32)C(c2ccccc2)(c2ccccc2)c2c-4sc3ccsc23)cc1']","[0, 0, 32, 3, 42, 24, 5, 6, 29, 56, 8, 1, 9, 39, 11, 12, 14]"
PBT1-C-2Cl,IT-4F,-5.59,-3.53,-5.66875,-4.060416666666667,1.0,CB,DIO,25,12.7,12.75,0.85,76.0,"['CCCCC(C)CC', 'CCCCCCC(C)CCCC', 'Cc1sccc1Cl', 'Clc1ccsc1', 'O=C1c2cscc2C(=O)c2cscc21', 'c1ccccc1', 'Cc1cc2cc3sccc3cc2s1']","['N#CCC#N', 'O=C1CCc2cc(F)c(F)cc21', 'C', 'CCCCCC', 'c1ccc(C2(c3ccccc3)c3cc4c(cc3-c3sc5ccsc5c32)C(c2ccccc2)(c2ccccc2)c2c-4sc3ccsc23)cc1']","['CCCCC(C)CC', 'CCCCCCC(C)CCCC', 'Cc1sccc1Cl', 'Clc1ccsc1', 'O=C1c2cscc2C(=O)c2cscc21', 'c1ccccc1', 'Cc1cc2cc3sccc3cc2s1', '.', 'N#CCC#N', 'O=C1CCc2cc(F)c(F)cc21', 'C', 'CCCCCC', 'c1ccc(C2(c3ccccc3)c3cc4c(cc3-c3sc5ccsc5c32)C(c2ccccc2)(c2ccccc2)c2c-4sc3ccsc23)cc1']","[0, 0, 0, 0, 3, 32, 160, 161, 29, 56, 8, 1, 9, 39, 11, 12, 14]"
J71,BDT-IC,-5.353333333333333,-3.4318181818181825,-5.51,-3.9,0.833,CF,_,25,10.9,10.42,0.92,65.5,"['CCCCCCCCC(C)CCCCCC', 'Cc1cccs1', 'CCC[Si](CCC)(CCC)c1cccs1', 'c1ccsc1', 'Fc1cc2nnnc2cc1F', 'Cc1cc2cc3sccc3cc2s1']","['N#CCC#N', 'O=C1CCc2ccccc21', 'C', 'CCCCCC', 'c1ccc(C2(c3ccccc3)c3ccsc3-c3sc4cc5c6c(sc5cc4c32)-c2sccc2C6(c2ccccc2)c2ccccc2)cc1']","['CCCCCCCCC(C)CCCCCC', 'Cc1cccs1', 'CCC[Si](CCC)(CCC)c1cccs1', 'c1ccsc1', 'Fc1cc2nnnc2cc1F', 'Cc1cc2cc3sccc3cc2s1', '.', 'N#CCC#N', 'O=C1CCc2ccccc21', 'C', 'CCCCCC', 'c1ccc(C2(c3ccccc3)c3ccsc3-c3sc4cc5c6c(sc5cc4c32)-c2sccc2C6(c2ccccc2)c2ccccc2)cc1']","[0, 0, 0, 0, 0, 16, 5, 17, 6, 18, 8, 1, 9, 10, 11, 12, 27]"
PBDB-T-2F,IT-4F,-5.47,-3.67,-5.66875,-4.060416666666667,1.0,CB,_,100,13.59,13.59,0.86,76.0,"['CCCCC(C)CC', 'Cc1cccs1', 'Fc1ccsc1', 'O=C1c2cscc2C(=O)c2cscc21', 'c1ccsc1', 'Cc1cc2cc3sccc3cc2s1']","['N#CCC#N', 'O=C1CCc2cc(F)c(F)cc21', 'C', 'CCCCCC', 'c1ccc(C2(c3ccccc3)c3cc4c(cc3-c3sc5ccsc5c32)C(c2ccccc2)(c2ccccc2)c2c-4sc3ccsc23)cc1']","['CCCCC(C)CC', 'Cc1cccs1', 'Fc1ccsc1', 'O=C1c2cscc2C(=O)c2cscc21', 'c1ccsc1', 'Cc1cc2cc3sccc3cc2s1', '.', 'N#CCC#N', 'O=C1CCc2cc(F)c(F)cc21', 'C', 'CCCCCC', 'c1ccc(C2(c3ccccc3)c3cc4c(cc3-c3sc5ccsc5c32)C(c2ccccc2)(c2ccccc2)c2c-4sc3ccsc23)cc1']","[0, 0, 0, 0, 0, 3, 5, 23, 29, 6, 8, 1, 9, 39, 11, 12, 14]"
PBDB-T-2Cl,IT-4F,-5.51,-3.71,-5.66875,-4.060416666666667,1.0,CB,_,100,14.29,14.29,0.89,78.0,"['CCCCC(C)CC', 'Cc1cccs1', 'Clc1ccsc1', 'O=C1c2cscc2C(=O)c2cscc21', 'c1ccsc1', 'Cc1cc2cc3sccc3cc2s1']","['N#CCC#N', 'O=C1CCc2cc(F)c(F)cc21', 'C', 'CCCCCC', 'c1ccc(C2(c3ccccc3)c3cc4c(cc3-c3sc5ccsc5c32)C(c2ccccc2)(c2ccccc2)c2c-4sc3ccsc23)cc1']","['CCCCC(C)CC', 'Cc1cccs1', 'Clc1ccsc1', 'O=C1c2cscc2C(=O)c2cscc21', 'c1ccsc1', 'Cc1cc2cc3sccc3cc2s1', '.', 'N#CCC#N', 'O=C1CCc2cc(F)c(F)cc21', 'C', 'CCCCCC', 'c1ccc(C2(c3ccccc3)c3cc4c(cc3-c3sc5ccsc5c32)C(c2ccccc2)(c2ccccc2)c2c-4sc3ccsc23)cc1']","[0, 0, 0, 0, 0, 3, 5, 161, 29, 6, 8, 1, 9, 39, 11, 12, 14]"
PBDB-T-2Cl,IT-4Cl,-5.51,-3.71,-5.75,-4.09,1.0,CF,_,100,13.37,13.19,0.81,74.0,"['CCCCC(C)CC', 'Cc1cccs1', 'Clc1ccsc1', 'O=C1c2cscc2C(=O)c2cscc21', 'c1ccsc1', 'Cc1cc2cc3sccc3cc2s1']","['N#CCC#N', 'O=C1CCc2cc(Cl)c(Cl)cc21', 'C', 'CCCCCC', 'c1ccc(C2(c3ccccc3)c3cc4c(cc3-c3sc5ccsc5c32)C(c2ccccc2)(c2ccccc2)c2c-4sc3ccsc23)cc1']","['CCCCC(C)CC', 'Cc1cccs1', 'Clc1ccsc1', 'O=C1c2cscc2C(=O)c2cscc21', 'c1ccsc1', 'Cc1cc2cc3sccc3cc2s1', '.', 'N#CCC#N', 'O=C1CCc2cc(Cl)c(Cl)cc21', 'C', 'CCCCCC', 'c1ccc(C2(c3ccccc3)c3cc4c(cc3-c3sc5ccsc5c32)C(c2ccccc2)(c2ccccc2)c2c-4sc3ccsc23)cc1']","[0, 0, 0, 0, 0, 3, 5, 161, 29, 6, 8, 1, 9, 38, 11, 12, 14]"
P1_PDTB-EF-T,IT-4F,-5.51,-3.59,-5.66875,-4.060416666666667,1.0,CB,DIO,25,11.5,11.5,0.896,64.0,"['CCCCCCCC', 'c1ccsc1', 'Cc1c(F)c(F)cc2nsnc12', 'c1ccsc1', 'Cc1cc2cc3sccc3cc2s1']","['N#CCC#N', 'O=C1CCc2cc(F)c(F)cc21', 'C', 'CCCCCC', 'c1ccc(C2(c3ccccc3)c3cc4c(cc3-c3sc5ccsc5c32)C(c2ccccc2)(c2ccccc2)c2c-4sc3ccsc23)cc1']","['CCCCCCCC', 'c1ccsc1', 'Cc1c(F)c(F)cc2nsnc12', 'c1ccsc1', 'Cc1cc2cc3sccc3cc2s1', '.', 'N#CCC#N', 'O=C1CCc2cc(F)c(F)cc21', 'C', 'CCCCCC', 'c1ccc(C2(c3ccccc3)c3cc4c(cc3-c3sc5ccsc5c32)C(c2ccccc2)(c2ccccc2)c2c-4sc3ccsc23)cc1']","[0, 0, 0, 0, 0, 0, 20, 6, 162, 6, 8, 1, 9, 39, 11, 12, 14]"
P2_PDTB-EF-T,IT-4F,-5.5,-3.59,-5.66875,-4.060416666666667,1.0,CB,DIO,150,14.2,14.19,0.9,76.0,"['O', 'CCCCCCCCCC', 'CCCCC(C)CC', 'C=O', 'CCCCC(CC)CCC', 'S', 'Cc1cccs1', 'Fc1ccsc1', 'c1ccsc1', 'c1ccsc1', 'Cc1cc2cc3sccc3cc2s1']","['N#CCC#N', 'O=C1CCc2cc(F)c(F)cc21', 'C', 'CCCCCC', 'c1ccc(C2(c3ccccc3)c3cc4c(cc3-c3sc5ccsc5c32)C(c2ccccc2)(c2ccccc2)c2c-4sc3ccsc23)cc1']","['O', 'CCCCCCCCCC', 'CCCCC(C)CC', 'C=O', 'CCCCC(CC)CCC', 'S', 'Cc1cccs1', 'Fc1ccsc1', 'c1ccsc1', 'c1ccsc1', 'Cc1cc2cc3sccc3cc2s1', '.', 'N#CCC#N', 'O=C1CCc2cc(F)c(F)cc21', 'C', 'CCCCCC', 'c1ccc(C2(c3ccccc3)c3cc4c(cc3-c3sc5ccsc5c32)C(c2ccccc2)(c2ccccc2)c2c-4sc3ccsc23)cc1']","[2, 163, 3, 4, 156, 24, 5, 23, 6, 6, 8, 1, 9, 39, 11, 12, 14]"
P3_PDTB-EF-T,IT-4F,-5.54,-3.6,-5.66875,-4.060416666666667,1.0,CB,DIO,25,11.2,11.2,0.904,61.0,"['O', 'CCC(C)CCCC(C)C', 'CCCCC(C)CC', 'C=O', 'S', 'Cc1cccs1', 'Fc1ccsc1', 'c1ccsc1', 'c1ccsc1', 'Cc1cc2cc3sccc3cc2s1']","['N#CCC#N', 'O=C1CCc2cc(F)c(F)cc21', 'C', 'CCCCCC', 'c1ccc(C2(c3ccccc3)c3cc4c(cc3-c3sc5ccsc5c32)C(c2ccccc2)(c2ccccc2)c2c-4sc3ccsc23)cc1']","['O', 'CCC(C)CCCC(C)C', 'CCCCC(C)CC', 'C=O', 'S', 'Cc1cccs1', 'Fc1ccsc1', 'c1ccsc1', 'c1ccsc1', 'Cc1cc2cc3sccc3cc2s1', '.', 'N#CCC#N', 'O=C1CCc2cc(F)c(F)cc21', 'C', 'CCCCCC', 'c1ccc(C2(c3ccccc3)c3cc4c(cc3-c3sc5ccsc5c32)C(c2ccccc2)(c2ccccc2)c2c-4sc3ccsc23)cc1']","[0, 2, 164, 3, 4, 24, 5, 23, 6, 6, 8, 1, 9, 39, 11, 12, 14]"
PBDB-T-SF,NCBDT-4Cl,-5.41,-3.62,-5.6,-4.02,1.0,CF,DIO,110,14.1,14.13,0.851,74.3,"['CCCCC(C)CC', 'c1ccsc1', 'Fc1ccsc1', 'O=C1c2cscc2C(=O)c2cscc21', 'c1ccsc1', 'Cc1cc2cc3sccc3cc2s1']","['N#CCC#N', 'O=C1CCc2cc(Cl)c(Cl)cc21', 'C', 'CCCCCCCC', 'CCCCCC', 'c1ccc(C2(c3ccccc3)c3ccsc3-c3sc4cc5c6c(sc5cc4c32)-c2sccc2C6(c2ccccc2)c2ccccc2)cc1']","['CCCCC(C)CC', 'c1ccsc1', 'Fc1ccsc1', 'O=C1c2cscc2C(=O)c2cscc21', 'c1ccsc1', 'Cc1cc2cc3sccc3cc2s1', '.', 'N#CCC#N', 'O=C1CCc2cc(Cl)c(Cl)cc21', 'C', 'CCCCCCCC', 'CCCCCC', 'c1ccc(C2(c3ccccc3)c3ccsc3-c3sc4cc5c6c(sc5cc4c32)-c2sccc2C6(c2ccccc2)c2ccccc2)cc1']","[0, 0, 0, 0, 3, 6, 23, 29, 6, 8, 1, 9, 38, 11, 20, 12, 27]"
PM6,Y6,-5.529999999999999,-3.555,-5.65,-4.1,0.833,CF,CN,110,15.7,15.71,0.83,74.8,"['CCCCC(C)CC', 'Cc1cccs1', 'Fc1ccsc1', 'O=C1c2cscc2C(=O)c2cscc21', 'c1ccsc1', 'Cc1cc2cc3sccc3cc2s1']","['N#CCC#N', 'O=C1CCc2cc(F)c(F)cc21', 'CCCCC(C)CC', 'C', 'CCCCCCCCCCC', 'c1cc2sc3c(nc4c5nc6c7sccc7sc6c5c5nsnc5c43)c2s1']","['CCCCC(C)CC', 'Cc1cccs1', 'Fc1ccsc1', 'O=C1c2cscc2C(=O)c2cscc21', 'c1ccsc1', 'Cc1cc2cc3sccc3cc2s1', '.', 'N#CCC#N', 'O=C1CCc2cc(F)c(F)cc21', 'CCCCC(C)CC', 'C', 'CCCCCCCCCCC', 'c1cc2sc3c(nc4c5nc6c7sccc7sc6c5c5nsnc5c43)c2s1']","[0, 0, 0, 0, 3, 5, 23, 29, 6, 8, 1, 9, 39, 3, 11, 165, 166]"
PBDB-T,ITC6-IC,-5.297714285714285,-3.4170000000000003,-5.73,-3.92,1.0,CB,_,125,11.61,11.62,0.97,73.0,"['CCCCC(C)CC', 'Cc1cccs1', 'c1ccsc1', 'O=C1c2cscc2C(=O)c2cscc21', 'Cc1cc2cc3sccc3cc2s1']","['N#CCC#N', 'O=C1CCc2ccccc21', 'C', 'CCCCCC', 'c1ccc(C2(c3ccccc3)c3cc4c(cc3-c3sc5ccsc5c32)C(c2ccccc2)(c2ccccc2)c2c-4sc3ccsc23)cc1']","['CCCCC(C)CC', 'Cc1cccs1', 'c1ccsc1', 'O=C1c2cscc2C(=O)c2cscc21', 'Cc1cc2cc3sccc3cc2s1', '.', 'N#CCC#N', 'O=C1CCc2ccccc21', 'C', 'CCCCCC', 'c1ccc(C2(c3ccccc3)c3cc4c(cc3-c3sc5ccsc5c32)C(c2ccccc2)(c2ccccc2)c2c-4sc3ccsc23)cc1']","[0, 0, 0, 0, 0, 0, 3, 5, 6, 29, 8, 1, 9, 10, 11, 12, 14]"
PBDBT-2F,IT-4F,-5.5,-3.75,-5.66875,-4.060416666666667,1.0,CB,DIO,25,13.37,13.33,0.86,74.5,"['CCCCC(C)CC', 'Cc1cccs1', 'Fc1ccsc1', 'O=C1c2cscc2C(=O)c2cscc21', 'c1ccsc1', 'Cc1cc2cc3sccc3cc2s1']","['N#CCC#N', 'O=C1CCc2cc(F)c(F)cc21', 'C', 'CCCCCC', 'c1ccc(C2(c3ccccc3)c3cc4c(cc3-c3sc5ccsc5c32)C(c2ccccc2)(c2ccccc2)c2c-4sc3ccsc23)cc1']","['CCCCC(C)CC', 'Cc1cccs1', 'Fc1ccsc1', 'O=C1c2cscc2C(=O)c2cscc21', 'c1ccsc1', 'Cc1cc2cc3sccc3cc2s1', '.', 'N#CCC#N', 'O=C1CCc2cc(F)c(F)cc21', 'C', 'CCCCCC', 'c1ccc(C2(c3ccccc3)c3cc4c(cc3-c3sc5ccsc5c32)C(c2ccccc2)(c2ccccc2)c2c-4sc3ccsc23)cc1']","[0, 0, 0, 0, 0, 3, 5, 23, 29, 6, 8, 1, 9, 39, 11, 12, 14]"
PBDB-T,ATT-6,-5.297714285714285,-3.4170000000000003,-5.45,-3.61,1.0,CF,_,160,8.22,8.36,0.96,59.37,"['CCCCC(C)CC', 'Cc1cccs1', 'c1ccsc1', 'O=C1c2cscc2C(=O)c2cscc21', 'Cc1cc2cc3sccc3cc2s1']","['O', 'CCCCCCCC', 'C=O', 'CC', 'CCCCCC', 'N#CC(C#N)=c1nc(=O)/c(=C\\c2scc3sccc23)s1', 'c1ccc(C2(c3ccccc3)c3cc4c(cc3-c3sccc32)C(c2ccccc2)(c2ccccc2)c2ccsc2-4)cc1']","['CCCCC(C)CC', 'Cc1cccs1', 'c1ccsc1', 'O=C1c2cscc2C(=O)c2cscc21', 'Cc1cc2cc3sccc3cc2s1', '.', 'O', 'CCCCCCCC', 'C=O', 'CC', 'CCCCCC', 'N#CC(C#N)=c1nc(=O)/c(=C\\c2scc3sccc23)s1', 'c1ccc(C2(c3ccccc3)c3cc4c(cc3-c3sccc32)C(c2ccccc2)(c2ccccc2)c2ccsc2-4)cc1']","[0, 0, 0, 0, 3, 5, 6, 29, 8, 1, 2, 20, 4, 21, 12, 149, 36]"
PBDB-T,ATT-7,-5.297714285714285,-3.4170000000000003,-5.48,-3.66,1.0,CF,_,160,10.12,10.34,0.97,66.67,"['CCCCC(C)CC', 'Cc1cccs1', 'c1ccsc1', 'O=C1c2cscc2C(=O)c2cscc21', 'Cc1cc2cc3sccc3cc2s1']","['O', 'CCCCCCCC', 'CCCCCC', 'C=O', 'N#CCC#N', 'O=C1CCc2ccccc21', 'C', 'c1cc2cscc2s1', 'c1ccc(C2(c3ccccc3)c3cc4c(cc3-c3sccc32)C(c2ccccc2)(c2ccccc2)c2ccsc2-4)cc1']","['CCCCC(C)CC', 'Cc1cccs1', 'c1ccsc1', 'O=C1c2cscc2C(=O)c2cscc21', 'Cc1cc2cc3sccc3cc2s1', '.', 'O', 'CCCCCCCC', 'CCCCCC', 'C=O', 'N#CCC#N', 'O=C1CCc2ccccc21', 'C', 'c1cc2cscc2s1', 'c1ccc(C2(c3ccccc3)c3cc4c(cc3-c3sccc32)C(c2ccccc2)(c2ccccc2)c2ccsc2-4)cc1']","[0, 0, 3, 5, 6, 29, 8, 1, 2, 20, 12, 4, 9, 10, 11, 86, 36]"
PBDB-T,Y1,-5.297714285714285,-3.4170000000000003,-5.45,-3.95,1.0,CB,CN,25,13.42,13.49,0.87,69.1,"['CCCCC(C)CC', 'Cc1cccs1', 'c1ccsc1', 'O=C1c2cscc2C(=O)c2cscc21', 'Cc1cc2cc3sccc3cc2s1']","['N#CCC#N', 'O=C1CCc2ccccc21', 'CCCCC(C)CC', 'C', 'c1cc2sc3c(nc4c5nc6c7sccc7sc6c5c5nnnc5c43)c2s1']","['CCCCC(C)CC', 'Cc1cccs1', 'c1ccsc1', 'O=C1c2cscc2C(=O)c2cscc21', 'Cc1cc2cc3sccc3cc2s1', '.', 'N#CCC#N', 'O=C1CCc2ccccc21', 'CCCCC(C)CC', 'C', 'c1cc2sc3c(nc4c5nc6c7sccc7sc6c5c5nnnc5c43)c2s1']","[0, 0, 0, 0, 0, 0, 3, 5, 6, 29, 8, 1, 9, 10, 3, 11, 168]"
PBDB-T,Y2,-5.297714285714285,-3.4170000000000003,-5.43,-4.04,1.0,CB,CN,25,13.4,13.41,0.82,69.4,"['CCCCC(C)CC', 'Cc1cccs1', 'c1ccsc1', 'O=C1c2cscc2C(=O)c2cscc21', 'Cc1cc2cc3sccc3cc2s1']","['N#CCC#N', 'O=C1CCc2cscc21', 'CCCCC(C)CC', 'C', 'c1cc2sc3c(nc4c5nc6c7sccc7sc6c5c5nnnc5c43)c2s1']","['CCCCC(C)CC', 'Cc1cccs1', 'c1ccsc1', 'O=C1c2cscc2C(=O)c2cscc21', 'Cc1cc2cc3sccc3cc2s1', '.', 'N#CCC#N', 'O=C1CCc2cscc21', 'CCCCC(C)CC', 'C', 'c1cc2sc3c(nc4c5nc6c7sccc7sc6c5c5nnnc5c43)c2s1']","[0, 0, 0, 0, 0, 0, 3, 5, 6, 29, 8, 1, 9, 40, 3, 11, 168]"
PBDB-T,BDTS-4Cl,-5.297714285714285,-3.4170000000000003,-5.45,-3.82,1.0,CF,_,25,3.73,3.73,0.83,45.9,"['CCCCC(C)CC', 'Cc1cccs1', 'c1ccsc1', 'O=C1c2cscc2C(=O)c2cscc21', 'Cc1cc2cc3sccc3cc2s1']","['N#CCC#N', 'O=C1CCc2cc(Cl)c(Cl)cc21', 'C', 'CCCCC(C)CC', 'CCCCC(C)CC', 'CCCCCCCC[Si]1(CCCCCCCC)c2ccsc2-c2sccc21', 'c1ccsc1', 'c1cc2cc3sccc3cc2s1']","['CCCCC(C)CC', 'Cc1cccs1', 'c1ccsc1', 'O=C1c2cscc2C(=O)c2cscc21', 'Cc1cc2cc3sccc3cc2s1', '.', 'N#CCC#N', 'O=C1CCc2cc(Cl)c(Cl)cc21', 'C', 'CCCCC(C)CC', 'CCCCC(C)CC', 'CCCCCCCC[Si]1(CCCCCCCC)c2ccsc2-c2sccc21', 'c1ccsc1', 'c1cc2cc3sccc3cc2s1']","[0, 0, 0, 3, 5, 6, 29, 8, 1, 9, 38, 11, 3, 3, 98, 6, 169]"
PBDB-T,BDTC-4Cl,-5.297714285714285,-3.4170000000000003,-5.35,-3.75,1.0,CF,_,25,9.54,9.54,0.864,59.5,"['CCCCC(C)CC', 'Cc1cccs1', 'c1ccsc1', 'O=C1c2cscc2C(=O)c2cscc21', 'Cc1cc2cc3sccc3cc2s1']","['N#CCC#N', 'O=C1CCc2cc(Cl)c(Cl)cc21', 'C', 'CCCCC(C)CC', 'CCCCC(C)CC', 'CCCCCCCCC1(CCCCCCCC)c2ccsc2-c2sccc21', 'c1ccsc1', 'c1cc2cc3sccc3cc2s1']","['CCCCC(C)CC', 'Cc1cccs1', 'c1ccsc1', 'O=C1c2cscc2C(=O)c2cscc21', 'Cc1cc2cc3sccc3cc2s1', '.', 'N#CCC#N', 'O=C1CCc2cc(Cl)c(Cl)cc21', 'C', 'CCCCC(C)CC', 'CCCCC(C)CC', 'CCCCCCCCC1(CCCCCCCC)c2ccsc2-c2sccc21', 'c1ccsc1', 'c1cc2cc3sccc3cc2s1']","[0, 0, 0, 3, 5, 6, 29, 8, 1, 9, 38, 11, 3, 3, 170, 6, 169]"
PTBB-o,ITCPTC,-5.52,-3.37,-5.604000000000001,-3.858000000000001,1.0,CF,_,100,2.14,2.22,0.99,30.5,"['CCCCC(C)CC', 'CCCCC(C)CC', 'S', 'Cc1cccs1', 'c1ccsc1', 'O=C1c2cscc2C(=O)c2cscc21', 'c1ccccc1', 'Cc1cc2cc3sccc3cc2s1']","['N#CCC#N', 'O=C1CCc2cscc21', 'C', 'CCCCCC', 'c1ccc(C2(c3ccccc3)c3cc4c(cc3-c3sc5ccsc5c32)C(c2ccccc2)(c2ccccc2)c2c-4sc3ccsc23)cc1']","['CCCCC(C)CC', 'CCCCC(C)CC', 'S', 'Cc1cccs1', 'c1ccsc1', 'O=C1c2cscc2C(=O)c2cscc21', 'c1ccccc1', 'Cc1cc2cc3sccc3cc2s1', '.', 'N#CCC#N', 'O=C1CCc2cscc21', 'C', 'CCCCCC', 'c1ccc(C2(c3ccccc3)c3cc4c(cc3-c3sc5ccsc5c32)C(c2ccccc2)(c2ccccc2)c2c-4sc3ccsc23)cc1']","[0, 0, 0, 3, 3, 24, 5, 6, 29, 56, 8, 1, 9, 40, 11, 12, 14]"
PTBB-m,ITCPTC,-5.48,-3.42,-5.604000000000001,-3.858000000000001,1.0,CF,_,100,7.07,7.06,0.97,48.4,"['CCCCC(C)CC', 'CCCCC(C)CC', 'S', 'Cc1cccs1', 'c1ccsc1', 'O=C1c2cscc2C(=O)c2cscc21', 'c1ccccc1', 'Cc1cc2cc3sccc3cc2s1']","['N#CCC#N', 'O=C1CCc2cscc21', 'C', 'CCCCCC', 'c1ccc(C2(c3ccccc3)c3cc4c(cc3-c3sc5ccsc5c32)C(c2ccccc2)(c2ccccc2)c2c-4sc3ccsc23)cc1']","['CCCCC(C)CC', 'CCCCC(C)CC', 'S', 'Cc1cccs1', 'c1ccsc1', 'O=C1c2cscc2C(=O)c2cscc21', 'c1ccccc1', 'Cc1cc2cc3sccc3cc2s1', '.', 'N#CCC#N', 'O=C1CCc2cscc21', 'C', 'CCCCCC', 'c1ccc(C2(c3ccccc3)c3cc4c(cc3-c3sc5ccsc5c32)C(c2ccccc2)(c2ccccc2)c2c-4sc3ccsc23)cc1']","[0, 0, 0, 3, 3, 24, 5, 6, 29, 56, 8, 1, 9, 40, 11, 12, 14]"
PTBB-p,ITCPTC,-5.41,-3.49,-5.604000000000001,-3.858000000000001,1.0,CF,_,100,7.26,7.27,0.91,50.9,"['CCCCC(C)CC', 'CCCCC(C)CC', 'S', 'Cc1cccs1', 'c1ccsc1', 'O=C1c2cscc2C(=O)c2cscc21', 'c1ccccc1', 'Cc1cc2cc3sccc3cc2s1']","['N#CCC#N', 'O=C1CCc2cscc21', 'C', 'CCCCCC', 'c1ccc(C2(c3ccccc3)c3cc4c(cc3-c3sc5ccsc5c32)C(c2ccccc2)(c2ccccc2)c2c-4sc3ccsc23)cc1']","['CCCCC(C)CC', 'CCCCC(C)CC', 'S', 'Cc1cccs1', 'c1ccsc1', 'O=C1c2cscc2C(=O)c2cscc21', 'c1ccccc1', 'Cc1cc2cc3sccc3cc2s1', '.', 'N#CCC#N', 'O=C1CCc2cscc21', 'C', 'CCCCCC', 'c1ccc(C2(c3ccccc3)c3cc4c(cc3-c3sc5ccsc5c32)C(c2ccccc2)(c2ccccc2)c2c-4sc3ccsc23)cc1']","[0, 0, 0, 3, 3, 24, 5, 6, 29, 56, 8, 1, 9, 40, 11, 12, 14]"
PBDS-TZ,IT-4F,-5.41,-3.46,-5.66875,-4.060416666666667,1.0,CB,DIO,90,12.01,11.78,0.804,73.1,"['CCCCC(C)CC', 'Cc1cccs1', 'CCC[Si](CCC)(CCC)c1cccs1', 'c1ccsc1', 'c1nc2scnc2s1', 'Cc1cc2cc3sccc3cc2s1']","['N#CCC#N', 'O=C1CCc2cc(F)c(F)cc21', 'C', 'CCCCCC', 'c1ccc(C2(c3ccccc3)c3cc4c(cc3-c3sc5ccsc5c32)C(c2ccccc2)(c2ccccc2)c2c-4sc3ccsc23)cc1']","['CCCCC(C)CC', 'Cc1cccs1', 'CCC[Si](CCC)(CCC)c1cccs1', 'c1ccsc1', 'c1nc2scnc2s1', 'Cc1cc2cc3sccc3cc2s1', '.', 'N#CCC#N', 'O=C1CCc2cc(F)c(F)cc21', 'C', 'CCCCCC', 'c1ccc(C2(c3ccccc3)c3cc4c(cc3-c3sc5ccsc5c32)C(c2ccccc2)(c2ccccc2)c2c-4sc3ccsc23)cc1']","[0, 0, 0, 0, 0, 3, 5, 17, 6, 124, 8, 1, 9, 39, 11, 12, 14]"