Donor,Acceptor,HOMO_D_eV,LUMO_D_eV,HOMO_A_eV,LUMO_A_eV,D_A_ratio_m_m,solvent,solvent_additive,annealing_temperature,PCE_percent,calc_PCE_percent,Voc_V,FF_percent,Donor_BRICS,Acceptor_BRICS,DA_pair_BRICS,DA_tokenized_BRICS
PTB7-Th,IDT-T,-5.204782608695651,-3.5391891891891896,-5.49,-3.985,0.769,CB,CN,25.0,4.08,4.08,0.84,50.9,"['[3*]O[3*]', '[4*]CC(CC)CCCC', '[1*]C([6*])=O', '[8*]CC(CC)CCCC', '[14*]c1sc2c([14*])sc(C)c2c1F', '[14*]c1ccc([14*])s1', '[14*]c1cc2c([16*])c3sc(C)cc3c([16*])c2s1']","['[7*]C(C#N)C#N', '[7*]C1C(=O)c2ccccc2C1[7*]', '[7*]C[8*]', '[8*]CCCCCC', '[14*]c1ccc([14*])s1', '[14*]c1cc2c(s1)-c1cc3c(cc1C2(c1ccc([16*])cc1)c1ccc([16*])cc1)-c1sc([14*])cc1C3(c1ccc([16*])cc1)c1ccc([16*])cc1']","['[3*]O[3*]', '[4*]CC(CC)CCCC', '[1*]C([6*])=O', '[8*]CC(CC)CCCC', '[14*]c1sc2c([14*])sc(C)c2c1F', '[14*]c1ccc([14*])s1', '[14*]c1cc2c([16*])c3sc(C)cc3c([16*])c2s1', '.', '[7*]C(C#N)C#N', '[7*]C1C(=O)c2ccccc2C1[7*]', '[7*]C[8*]', '[8*]CCCCCC', '[14*]c1ccc([14*])s1', '[14*]c1cc2c(s1)-c1cc3c(cc1C2(c1ccc([16*])cc1)c1ccc([16*])cc1)-c1sc([14*])cc1C3(c1ccc([16*])cc1)c1ccc([16*])cc1']","[0, 0, 0, 2, 3, 4, 5, 35, 7, 9, 1, 10, 11, 12, 13, 7, 38]"
PBDB-T,IDT-Tz,-5.297714285714285,-3.4170000000000003,-5.62,-4.09,1.0,CB,CN,25.0,8.52,8.52,0.88,70.8,"['[8*]CC(CC)CCCC', '[14*]c1ccc(C)s1', '[14*]c1ccc([14*])s1', '[14*]c1sc([14*])c2c1C(=O)c1c([14*])sc([14*])c1C2=O', '[14*]c1cc2c([16*])c3sc(C)cc3c([16*])c2s1']","['[7*]C(C#N)C#N', '[7*]C1C(=O)c2ccccc2C1[7*]', '[7*]C[8*]', '[8*]CCCCCC', '[14*]c1cnc([14*])s1', '[16*]c1ccc(C2(c3ccc([16*])cc3)c3cc([16*])ccc3-c3cc4c(cc32)-c2ccc([16*])cc2C4(c2ccc([16*])cc2)c2ccc([16*])cc2)cc1']","['[8*]CC(CC)CCCC', '[14*]c1ccc(C)s1', '[14*]c1ccc([14*])s1', '[14*]c1sc([14*])c2c1C(=O)c1c([14*])sc([14*])c1C2=O', '[14*]c1cc2c([16*])c3sc(C)cc3c([16*])c2s1', '.', '[7*]C(C#N)C#N', '[7*]C1C(=O)c2ccccc2C1[7*]', '[7*]C[8*]', '[8*]CCCCCC', '[14*]c1cnc([14*])s1', '[16*]c1ccc(C2(c3ccc([16*])cc3)c3cc([16*])ccc3-c3cc4c(cc32)-c2ccc([16*])cc2C4(c2ccc([16*])cc2)c2ccc([16*])cc2)cc1']","[0, 0, 0, 0, 0, 5, 6, 7, 30, 9, 1, 10, 11, 12, 13, 153, 154]"
PTB7-Th,IDT-N,-5.204782608695651,-3.5391891891891896,-5.73,-4.08,1.0,CF,_,100.0,5.5,5.48,0.73,57.7,"['[3*]O[3*]', '[4*]CC(CC)CCCC', '[1*]C([6*])=O', '[8*]CC(CC)CCCC', '[14*]c1sc2c([14*])sc(C)c2c1F', '[14*]c1ccc([14*])s1', '[14*]c1cc2c([16*])c3sc(C)cc3c([16*])c2s1']","['[7*]C(C#N)C#N', '[7*]C1C(=O)c2cc3ccccc3cc2C1[7*]', '[7*]C[8*]', '[8*]CCCCCC', '[14*]c1cc2c(s1)-c1cc3c(cc1C2(c1ccc([16*])cc1)c1ccc([16*])cc1)-c1sc([14*])cc1C3(c1ccc([16*])cc1)c1ccc([16*])cc1']","['[3*]O[3*]', '[4*]CC(CC)CCCC', '[1*]C([6*])=O', '[8*]CC(CC)CCCC', '[14*]c1sc2c([14*])sc(C)c2c1F', '[14*]c1ccc([14*])s1', '[14*]c1cc2c([16*])c3sc(C)cc3c([16*])c2s1', '.', '[7*]C(C#N)C#N', '[7*]C1C(=O)c2cc3ccccc3cc2C1[7*]', '[7*]C[8*]', '[8*]CCCCCC', '[14*]c1cc2c(s1)-c1cc3c(cc1C2(c1ccc([16*])cc1)c1ccc([16*])cc1)-c1sc([14*])cc1C3(c1ccc([16*])cc1)c1ccc([16*])cc1']","[0, 0, 0, 0, 2, 3, 4, 5, 35, 7, 9, 1, 10, 40, 12, 13, 38]"
PTB7-Th,IDT-T-N,-5.204782608695651,-3.5391891891891896,-5.58,-4.06,1.0,CF,CN,100.0,6.6,6.56,0.87,51.38,"['[3*]O[3*]', '[4*]CC(CC)CCCC', '[1*]C([6*])=O', '[8*]CC(CC)CCCC', '[14*]c1sc2c([14*])sc(C)c2c1F', '[14*]c1ccc([14*])s1', '[14*]c1cc2c([16*])c3sc(C)cc3c([16*])c2s1']","['[7*]C(C#N)C#N', '[7*]C1C(=O)c2cc3ccccc3cc2C1[7*]', '[7*]C[8*]', '[8*]CC(CC)CCCC', '[8*]CCCCCC', '[14*]c1cc([16*])c([14*])s1', '[14*]c1cc2c(s1)-c1cc3c(cc1C2(c1ccc([16*])cc1)c1ccc([16*])cc1)-c1sc([14*])cc1C3(c1ccc([16*])cc1)c1ccc([16*])cc1']","['[3*]O[3*]', '[4*]CC(CC)CCCC', '[1*]C([6*])=O', '[8*]CC(CC)CCCC', '[14*]c1sc2c([14*])sc(C)c2c1F', '[14*]c1ccc([14*])s1', '[14*]c1cc2c([16*])c3sc(C)cc3c([16*])c2s1', '.', '[7*]C(C#N)C#N', '[7*]C1C(=O)c2cc3ccccc3cc2C1[7*]', '[7*]C[8*]', '[8*]CC(CC)CCCC', '[8*]CCCCCC', '[14*]c1cc([16*])c([14*])s1', '[14*]c1cc2c(s1)-c1cc3c(cc1C2(c1ccc([16*])cc1)c1ccc([16*])cc1)-c1sc([14*])cc1C3(c1ccc([16*])cc1)c1ccc([16*])cc1']","[0, 0, 2, 3, 4, 5, 35, 7, 9, 1, 10, 40, 12, 5, 13, 34, 38]"
PBDB-T,IDT-N,-5.297714285714285,-3.4170000000000003,-5.73,-4.08,1.0,CF,CN,100.0,8.99,9.02,0.79,71.91,"['[8*]CC(CC)CCCC', '[14*]c1ccc(C)s1', '[14*]c1ccc([14*])s1', '[14*]c1sc([14*])c2c1C(=O)c1c([14*])sc([14*])c1C2=O', '[14*]c1cc2c([16*])c3sc(C)cc3c([16*])c2s1']","['[7*]C(C#N)C#N', '[7*]C1C(=O)c2cc3ccccc3cc2C1[7*]', '[7*]C[8*]', '[8*]CCCCCC', '[14*]c1cc2c(s1)-c1cc3c(cc1C2(c1ccc([16*])cc1)c1ccc([16*])cc1)-c1sc([14*])cc1C3(c1ccc([16*])cc1)c1ccc([16*])cc1']","['[8*]CC(CC)CCCC', '[14*]c1ccc(C)s1', '[14*]c1ccc([14*])s1', '[14*]c1sc([14*])c2c1C(=O)c1c([14*])sc([14*])c1C2=O', '[14*]c1cc2c([16*])c3sc(C)cc3c([16*])c2s1', '.', '[7*]C(C#N)C#N', '[7*]C1C(=O)c2cc3ccccc3cc2C1[7*]', '[7*]C[8*]', '[8*]CCCCCC', '[14*]c1cc2c(s1)-c1cc3c(cc1C2(c1ccc([16*])cc1)c1ccc([16*])cc1)-c1sc([14*])cc1C3(c1ccc([16*])cc1)c1ccc([16*])cc1']","[0, 0, 0, 0, 0, 0, 5, 6, 7, 30, 9, 1, 10, 40, 12, 13, 38]"
PBDB-T,IDT-PDOT,-5.297714285714285,-3.4170000000000003,-5.39,-3.77,2.0,o-DCB,_,25.0,2.18,2.19,0.85,48.9,"['[8*]CC(CC)CCCC', '[14*]c1ccc(C)s1', '[14*]c1ccc([14*])s1', '[14*]c1sc([14*])c2c1C(=O)c1c([14*])sc([14*])c1C2=O', '[14*]c1cc2c([16*])c3sc(C)cc3c([16*])c2s1']","['[7*]C(C#N)C#N', '[7*]C1C(=O)c2cc(F)c(F)cc2C1[7*]', '[7*]C[8*]', '[8*]CCCCCC', '[14*]c1sc([14*])c2c1OCCCO2', '[14*]c1cc2c(s1)-c1cc3c(cc1C2(c1ccc([16*])cc1)c1ccc([16*])cc1)-c1sc([14*])cc1C3(c1ccc([16*])cc1)c1ccc([16*])cc1']","['[8*]CC(CC)CCCC', '[14*]c1ccc(C)s1', '[14*]c1ccc([14*])s1', '[14*]c1sc([14*])c2c1C(=O)c1c([14*])sc([14*])c1C2=O', '[14*]c1cc2c([16*])c3sc(C)cc3c([16*])c2s1', '.', '[7*]C(C#N)C#N', '[7*]C1C(=O)c2cc(F)c(F)cc2C1[7*]', '[7*]C[8*]', '[8*]CCCCCC', '[14*]c1sc([14*])c2c1OCCCO2', '[14*]c1cc2c(s1)-c1cc3c(cc1C2(c1ccc([16*])cc1)c1ccc([16*])cc1)-c1sc([14*])cc1C3(c1ccc([16*])cc1)c1ccc([16*])cc1']","[0, 0, 0, 0, 0, 5, 6, 7, 30, 9, 1, 10, 42, 12, 13, 156, 38]"
PTB7-Th,p-IDTIDT-IC,-5.204782608695651,-3.5391891891891896,-5.42,-3.82,0.667,o-DCB,_,150.0,6.48,6.47,0.94,47.5,"['[3*]O[3*]', '[4*]CC(CC)CCCC', '[1*]C([6*])=O', '[8*]CC(CC)CCCC', '[14*]c1sc2c([14*])sc(C)c2c1F', '[14*]c1ccc([14*])s1', '[14*]c1cc2c([16*])c3sc(C)cc3c([16*])c2s1']","['[7*]C(C#N)C#N', '[7*]C1C(=O)c2ccccc2C1[7*]', '[7*]C[8*]', '[8*]CCCCCC', '[14*]c1cc2c(s1)-c1cc3c(cc1C2(c1ccc([16*])cc1)c1ccc([16*])cc1)-c1sc2c4c(sc2c1C3(c1ccc([16*])cc1)c1ccc([16*])cc1)-c1cc2c(cc1C4(c1ccc([16*])cc1)c1ccc([16*])cc1)-c1sc([14*])cc1C2(c1ccc([16*])cc1)c1ccc([16*])cc1']","['[3*]O[3*]', '[4*]CC(CC)CCCC', '[1*]C([6*])=O', '[8*]CC(CC)CCCC', '[14*]c1sc2c([14*])sc(C)c2c1F', '[14*]c1ccc([14*])s1', '[14*]c1cc2c([16*])c3sc(C)cc3c([16*])c2s1', '.', '[7*]C(C#N)C#N', '[7*]C1C(=O)c2ccccc2C1[7*]', '[7*]C[8*]', '[8*]CCCCCC', '[14*]c1cc2c(s1)-c1cc3c(cc1C2(c1ccc([16*])cc1)c1ccc([16*])cc1)-c1sc2c4c(sc2c1C3(c1ccc([16*])cc1)c1ccc([16*])cc1)-c1cc2c(cc1C4(c1ccc([16*])cc1)c1ccc([16*])cc1)-c1sc([14*])cc1C2(c1ccc([16*])cc1)c1ccc([16*])cc1']","[0, 0, 0, 0, 2, 3, 4, 5, 35, 7, 9, 1, 10, 11, 12, 13, 157]"
PBDB-TF,IDT-PhC6,-5.497142857142857,-3.6428571428571423,-5.56,-3.32,1.0,CF,DIO,100.0,5.6,5.59,1.0,43.0,"['[8*]CC(CC)CCCC', '[14*]c1ccc(C)s1', '[14*]c1cc(F)c([14*])s1', '[14*]c1sc([14*])c2c1C(=O)c1c([14*])sc([14*])c1C2=O', '[14*]c1ccc([14*])s1', '[14*]c1cc2c([16*])c3sc(C)cc3c([16*])c2s1']","['[7*]C(C#N)C#N', '[7*]C1C(=O)c2ccc(C)cc2C1[7*]', '[7*]C[8*]', '[8*]CCCCCC', '[14*]c1cc2c(s1)-c1cc3c(cc1C2(c1ccc([16*])cc1)c1ccc([16*])cc1)-c1sc([14*])cc1C3(c1ccc([16*])cc1)c1ccc([16*])cc1']","['[8*]CC(CC)CCCC', '[14*]c1ccc(C)s1', '[14*]c1cc(F)c([14*])s1', '[14*]c1sc([14*])c2c1C(=O)c1c([14*])sc([14*])c1C2=O', '[14*]c1ccc([14*])s1', '[14*]c1cc2c([16*])c3sc(C)cc3c([16*])c2s1', '.', '[7*]C(C#N)C#N', '[7*]C1C(=O)c2ccc(C)cc2C1[7*]', '[7*]C[8*]', '[8*]CCCCCC', '[14*]c1cc2c(s1)-c1cc3c(cc1C2(c1ccc([16*])cc1)c1ccc([16*])cc1)-c1sc([14*])cc1C3(c1ccc([16*])cc1)c1ccc([16*])cc1']","[0, 0, 0, 0, 0, 5, 6, 24, 30, 7, 9, 1, 10, 16, 12, 13, 38]"
PTB7-Th,IDT-2BM,-5.204782608695651,-3.5391891891891896,-5.586666666666666,-4.083333333333333,0.667,CB,DPE,25.0,3.97,3.99,0.826,52.0,"['[3*]O[3*]', '[4*]CC(CC)CCCC', '[1*]C([6*])=O', '[8*]CC(CC)CCCC', '[14*]c1sc2c([14*])sc(C)c2c1F', '[14*]c1ccc([14*])s1', '[14*]c1cc2c([16*])c3sc(C)cc3c([16*])c2s1']","['[7*]C(C#N)C#N', '[7*]C[8*]', '[8*]CCCCCC', '[16*]c1ccc([16*])c2nsnc12', '[14*]c1cc2c(s1)-c1cc3c(cc1C2(c1ccc([16*])cc1)c1ccc([16*])cc1)-c1sc([14*])cc1C3(c1ccc([16*])cc1)c1ccc([16*])cc1']","['[3*]O[3*]', '[4*]CC(CC)CCCC', '[1*]C([6*])=O', '[8*]CC(CC)CCCC', '[14*]c1sc2c([14*])sc(C)c2c1F', '[14*]c1ccc([14*])s1', '[14*]c1cc2c([16*])c3sc(C)cc3c([16*])c2s1', '.', '[7*]C(C#N)C#N', '[7*]C[8*]', '[8*]CCCCCC', '[16*]c1ccc([16*])c2nsnc12', '[14*]c1cc2c(s1)-c1cc3c(cc1C2(c1ccc([16*])cc1)c1ccc([16*])cc1)-c1sc([14*])cc1C3(c1ccc([16*])cc1)c1ccc([16*])cc1']","[0, 0, 0, 0, 2, 3, 4, 5, 35, 7, 9, 1, 10, 12, 13, 127, 38]"
PBDB-T,FDNCTF,-5.297714285714285,-3.4170000000000003,-5.42,-3.73,1.25,CB,_,25.0,10.0,9.8,0.94,66.0,"['[8*]CC(CC)CCCC', '[14*]c1ccc(C)s1', '[14*]c1ccc([14*])s1', '[14*]c1sc([14*])c2c1C(=O)c1c([14*])sc([14*])c1C2=O', '[14*]c1cc2c([16*])c3sc(C)cc3c([16*])c2s1']","['[7*]C(C#N)C#N', '[7*]C1C(=O)c2cc3ccccc3cc2C1[7*]', '[7*]C[8*]', '[14*]c1cc2c(s1)-c1cc3c(cc1C2(CCCCCCCC)CCCCCCCC)-c1cc2c(cc1C3(CCCCCCCC)CCCCCCCC)-c1sc([14*])cc1C2(CCCCCCCC)CCCCCCCC']","['[8*]CC(CC)CCCC', '[14*]c1ccc(C)s1', '[14*]c1ccc([14*])s1', '[14*]c1sc([14*])c2c1C(=O)c1c([14*])sc([14*])c1C2=O', '[14*]c1cc2c([16*])c3sc(C)cc3c([16*])c2s1', '.', '[7*]C(C#N)C#N', '[7*]C1C(=O)c2cc3ccccc3cc2C1[7*]', '[7*]C[8*]', '[14*]c1cc2c(s1)-c1cc3c(cc1C2(CCCCCCCC)CCCCCCCC)-c1cc2c(cc1C3(CCCCCCCC)CCCCCCCC)-c1sc([14*])cc1C2(CCCCCCCC)CCCCCCCC']","[0, 0, 0, 0, 0, 0, 0, 5, 6, 7, 30, 9, 1, 10, 40, 12, 110]"
PBDB-T,FDICTF,-5.297714285714285,-3.4170000000000003,-5.43,-3.71,1.25,CB,_,25.0,11.2,10.99,0.93,72.5,"['[8*]CC(CC)CCCC', '[14*]c1ccc(C)s1', '[14*]c1ccc([14*])s1', '[14*]c1sc([14*])c2c1C(=O)c1c([14*])sc([14*])c1C2=O', '[14*]c1cc2c([16*])c3sc(C)cc3c([16*])c2s1']","['[7*]C(C#N)C#N', '[7*]C1C(=O)c2ccccc2C1[7*]', '[7*]C[8*]', '[14*]c1cc2c(s1)-c1cc3c(cc1C2(CCCCCCCC)CCCCCCCC)-c1cc2c(cc1C3(CCCCCCCC)CCCCCCCC)-c1sc([14*])cc1C2(CCCCCCCC)CCCCCCCC']","['[8*]CC(CC)CCCC', '[14*]c1ccc(C)s1', '[14*]c1ccc([14*])s1', '[14*]c1sc([14*])c2c1C(=O)c1c([14*])sc([14*])c1C2=O', '[14*]c1cc2c([16*])c3sc(C)cc3c([16*])c2s1', '.', '[7*]C(C#N)C#N', '[7*]C1C(=O)c2ccccc2C1[7*]', '[7*]C[8*]', '[14*]c1cc2c(s1)-c1cc3c(cc1C2(CCCCCCCC)CCCCCCCC)-c1cc2c(cc1C3(CCCCCCCC)CCCCCCCC)-c1sc([14*])cc1C2(CCCCCCCC)CCCCCCCC']","[0, 0, 0, 0, 0, 0, 0, 5, 6, 7, 30, 9, 1, 10, 11, 12, 110]"
PBDB-T,DTNIC8,-5.297714285714285,-3.4170000000000003,-5.91,-3.93,1.0,CB,_,25.0,9.03,9.03,0.96,72.84,"['[8*]CC(CC)CCCC', '[14*]c1ccc(C)s1', '[14*]c1ccc([14*])s1', '[14*]c1sc([14*])c2c1C(=O)c1c([14*])sc([14*])c1C2=O', '[14*]c1cc2c([16*])c3sc(C)cc3c([16*])c2s1']","['[7*]C(C#N)C#N', '[7*]C1C(=O)c2ccccc2C1[7*]', '[7*]C[8*]', '[14*]c1cc2c(s1)-c1c(ccc3c4c(ccc13)C(CC(CC)CCCC)(CC(CC)CCCC)c1cc([14*])sc1-4)C2(CC(CC)CCCC)CC(CC)CCCC']","['[8*]CC(CC)CCCC', '[14*]c1ccc(C)s1', '[14*]c1ccc([14*])s1', '[14*]c1sc([14*])c2c1C(=O)c1c([14*])sc([14*])c1C2=O', '[14*]c1cc2c([16*])c3sc(C)cc3c([16*])c2s1', '.', '[7*]C(C#N)C#N', '[7*]C1C(=O)c2ccccc2C1[7*]', '[7*]C[8*]', '[14*]c1cc2c(s1)-c1c(ccc3c4c(ccc13)C(CC(CC)CCCC)(CC(CC)CCCC)c1cc([14*])sc1-4)C2(CC(CC)CCCC)CC(CC)CCCC']","[0, 0, 0, 0, 0, 0, 0, 5, 6, 7, 30, 9, 1, 10, 11, 12, 159]"
PTB7-Th,DTCC-IC,-5.204782608695651,-3.5391891891891896,-5.5,-3.87,1.0,CF,CN,100.0,6.0,6.0,0.95,56.2,"['[3*]O[3*]', '[4*]CC(CC)CCCC', '[1*]C([6*])=O', '[8*]CC(CC)CCCC', '[14*]c1sc2c([14*])sc(C)c2c1F', '[14*]c1ccc([14*])s1', '[14*]c1cc2c([16*])c3sc(C)cc3c([16*])c2s1']","['[4*]CCCCCCCC', '[3*]O[3*]', '[7*]C(C#N)C#N', '[7*]C1C(=O)c2cc(F)c(F)cc2C1[7*]', '[8*]CCCCCCCC', '[7*]C[8*]', '[9*]n1c2cc3c(cc2c2cc4c(cc21)-c1sc([14*])cc1C4(c1ccc([16*])cc1)c1ccc([16*])cc1)C(c1ccc([16*])cc1)(c1ccc([16*])cc1)c1cc([14*])sc1-3']","['[3*]O[3*]', '[4*]CC(CC)CCCC', '[1*]C([6*])=O', '[8*]CC(CC)CCCC', '[14*]c1sc2c([14*])sc(C)c2c1F', '[14*]c1ccc([14*])s1', '[14*]c1cc2c([16*])c3sc(C)cc3c([16*])c2s1', '.', '[4*]CCCCCCCC', '[3*]O[3*]', '[7*]C(C#N)C#N', '[7*]C1C(=O)c2cc(F)c(F)cc2C1[7*]', '[8*]CCCCCCCC', '[7*]C[8*]', '[9*]n1c2cc3c(cc2c2cc4c(cc21)-c1sc([14*])cc1C4(c1ccc([16*])cc1)c1ccc([16*])cc1)C(c1ccc([16*])cc1)(c1ccc([16*])cc1)c1cc([14*])sc1-3']","[0, 0, 2, 3, 4, 5, 35, 7, 9, 1, 51, 2, 10, 42, 21, 12, 126]"
P3HT,DNIT-TT2T,-5.057777777777777,-2.989444444444445,-5.94,-3.75,1.0,o-DCB,_,130.0,1.25,1.25,0.88,43.47,"['[8*]CCCCCC', '[14*]c1sc(C)cc1[16*]', '[14*]c1cc([16*])c(C)s1', '[14*]c1cc([16*])c([14*])s1']","['[8*]CC(CC)CCCC', '[8*]CCCCCC', '[14*]c1ccc([14*])s1', '[10*]N1C(=O)c2cccc3c([16*])ccc(c23)C1=O', '[14*]c1sc2c([16*])c([14*])sc2c1[16*]']","['[8*]CCCCCC', '[14*]c1sc(C)cc1[16*]', '[14*]c1cc([16*])c(C)s1', '[14*]c1cc([16*])c([14*])s1', '.', '[8*]CC(CC)CCCC', '[8*]CCCCCC', '[14*]c1ccc([14*])s1', '[10*]N1C(=O)c2cccc3c([16*])ccc(c23)C1=O', '[14*]c1sc2c([16*])c([14*])sc2c1[16*]']","[0, 0, 0, 0, 0, 0, 0, 13, 102, 57, 34, 1, 5, 13, 7, 88, 8]"
PTB7-Th,DICTF,-5.204782608695651,-3.5391891891891896,-5.67,-3.79,0.714,CF,_,100.0,7.63,7.63,0.85,55.0,"['[3*]O[3*]', '[4*]CC(CC)CCCC', '[1*]C([6*])=O', '[8*]CC(CC)CCCC', '[14*]c1sc2c([14*])sc(C)c2c1F', '[14*]c1ccc([14*])s1', '[14*]c1cc2c([16*])c3sc(C)cc3c([16*])c2s1']","['[7*]C(C#N)C#N', '[7*]C1C(=O)c2ccccc2C1[7*]', '[7*]C[8*]', '[14*]c1ccc([14*])s1', '[16*]c1ccc2c(c1)C(CCCCCCCC)(CCCCCCCC)c1cc([16*])ccc1-2']","['[3*]O[3*]', '[4*]CC(CC)CCCC', '[1*]C([6*])=O', '[8*]CC(CC)CCCC', '[14*]c1sc2c([14*])sc(C)c2c1F', '[14*]c1ccc([14*])s1', '[14*]c1cc2c([16*])c3sc(C)cc3c([16*])c2s1', '.', '[7*]C(C#N)C#N', '[7*]C1C(=O)c2ccccc2C1[7*]', '[7*]C[8*]', '[14*]c1ccc([14*])s1', '[16*]c1ccc2c(c1)C(CCCCCCCC)(CCCCCCCC)c1cc([16*])ccc1-2']","[0, 0, 0, 0, 2, 3, 4, 5, 35, 7, 9, 1, 10, 11, 12, 7, 78]"
P1_BDT-TBT,DCI-2,-5.1,-3.48,-5.24,-4.05,0.5,CF,DIO,25.0,6.94,6.94,0.8,63.0,"['[3*]OS[11*]', '[4*]CCCCCCCCCCCC', '[14*]c1cc2c([16*])c3sc(C)cc3c([16*])c2s1', '[14*]c1ccc(C)s1', '[14*]c1ccc([14*])s1', '[16*]c1ccc([16*])c2nsnc12']","['[7*]C(C#N)C#N', '[7*]C1C(=O)c2ccccc2C1[7*]', '[8*]C(CCCCCCC)CCCCCCCCC', '[7*]C[8*]', '[8*]CCCCCC', '[14*]c1cc([16*])c([14*])s1', '[9*]n1c2cc([14*])sc2c2sc([14*])cc21']","['[3*]OS[11*]', '[4*]CCCCCCCCCCCC', '[14*]c1cc2c([16*])c3sc(C)cc3c([16*])c2s1', '[14*]c1ccc(C)s1', '[14*]c1ccc([14*])s1', '[16*]c1ccc([16*])c2nsnc12', '.', '[7*]C(C#N)C#N', '[7*]C1C(=O)c2ccccc2C1[7*]', '[8*]C(CCCCCCC)CCCCCCCCC', '[7*]C[8*]', '[8*]CCCCCC', '[14*]c1cc([16*])c([14*])s1', '[9*]n1c2cc([14*])sc2c2sc([14*])cc21']","[0, 0, 0, 32, 26, 9, 6, 7, 127, 1, 10, 11, 125, 12, 13, 34, 164]"
PBDTTT-C-T,DC-IDT2F,-5.128,-3.268,-5.44,-3.88,2.0,o-DCB,_,25.0,3.08,3.08,0.96,50.8,"['[6*]C(=O)CC(CC)CCCC', '[8*]CC(CC)CCCC', '[14*]c1cc2c(C)sc([14*])c2s1', '[14*]c1ccc([14*])s1', '[14*]c1cc2c([16*])c3sc(C)cc3c([16*])c2s1']","['[7*]C(C#N)C#N', '[7*]C1C(=O)c2ccccc2C1[7*]', '[7*]C[8*]', '[8*]CCCCCC', '[14*]c1ccc([14*])o1', '[16*]c1ccc(C2(c3ccc([16*])cc3)c3cc([16*])ccc3-c3cc4c(cc32)-c2ccc([16*])cc2C4(c2ccc([16*])cc2)c2ccc([16*])cc2)cc1']","['[6*]C(=O)CC(CC)CCCC', '[8*]CC(CC)CCCC', '[14*]c1cc2c(C)sc([14*])c2s1', '[14*]c1ccc([14*])s1', '[14*]c1cc2c([16*])c3sc(C)cc3c([16*])c2s1', '.', '[7*]C(C#N)C#N', '[7*]C1C(=O)c2ccccc2C1[7*]', '[7*]C[8*]', '[8*]CCCCCC', '[14*]c1ccc([14*])o1', '[16*]c1ccc(C2(c3ccc([16*])cc3)c3cc([16*])ccc3-c3cc4c(cc32)-c2ccc([16*])cc2C4(c2ccc([16*])cc2)c2ccc([16*])cc2)cc1']","[0, 0, 0, 0, 0, 98, 5, 96, 7, 9, 1, 10, 11, 12, 13, 50, 154]"
PTB7-Th,IM-IDT,-5.204782608695651,-3.5391891891891896,-5.44,-4.0,1.0,o-DCB,DPE,100.0,1.6,1.41,0.58,49.16,"['[3*]O[3*]', '[4*]CC(CC)CCCC', '[1*]C([6*])=O', '[8*]CC(CC)CCCC', '[14*]c1sc2c([14*])sc(C)c2c1F', '[14*]c1ccc([14*])s1', '[14*]c1cc2c([16*])c3sc(C)cc3c([16*])c2s1']","['[7*]C(C#N)C#N', '[8*]CCCCCC', '[7*]C1C(=O)N(CC(CC)CCCC)c2cc([16*])ccc21', '[14*]c1cc2c(s1)-c1cc3c(cc1C2(c1ccc([16*])cc1)c1ccc([16*])cc1)-c1sc([14*])cc1C3(c1ccc([16*])cc1)c1ccc([16*])cc1']","['[3*]O[3*]', '[4*]CC(CC)CCCC', '[1*]C([6*])=O', '[8*]CC(CC)CCCC', '[14*]c1sc2c([14*])sc(C)c2c1F', '[14*]c1ccc([14*])s1', '[14*]c1cc2c([16*])c3sc(C)cc3c([16*])c2s1', '.', '[7*]C(C#N)C#N', '[8*]CCCCCC', '[7*]C1C(=O)N(CC(CC)CCCC)c2cc([16*])ccc21', '[14*]c1cc2c(s1)-c1cc3c(cc1C2(c1ccc([16*])cc1)c1ccc([16*])cc1)-c1sc([14*])cc1C3(c1ccc([16*])cc1)c1ccc([16*])cc1']","[0, 0, 0, 0, 0, 2, 3, 4, 5, 35, 7, 9, 1, 10, 13, 165, 38]"
PTB7-Th,TIM-IDT,-5.204782608695651,-3.5391891891891896,-5.36,-4.01,1.0,o-DCB,_,25.0,1.63,1.44,0.6,45.53,"['[3*]O[3*]', '[4*]CC(CC)CCCC', '[1*]C([6*])=O', '[8*]CC(CC)CCCC', '[14*]c1sc2c([14*])sc(C)c2c1F', '[14*]c1ccc([14*])s1', '[14*]c1cc2c([16*])c3sc(C)cc3c([16*])c2s1']","['[7*]C(C#N)C#N', '[8*]CCCCCC', '[7*]C1C(=O)N(CC(CC)CCCC)c2cc([14*])sc21', '[14*]c1cc2c(s1)-c1cc3c(cc1C2(c1ccc([16*])cc1)c1ccc([16*])cc1)-c1sc([14*])cc1C3(c1ccc([16*])cc1)c1ccc([16*])cc1']","['[3*]O[3*]', '[4*]CC(CC)CCCC', '[1*]C([6*])=O', '[8*]CC(CC)CCCC', '[14*]c1sc2c([14*])sc(C)c2c1F', '[14*]c1ccc([14*])s1', '[14*]c1cc2c([16*])c3sc(C)cc3c([16*])c2s1', '.', '[7*]C(C#N)C#N', '[8*]CCCCCC', '[7*]C1C(=O)N(CC(CC)CCCC)c2cc([14*])sc21', '[14*]c1cc2c(s1)-c1cc3c(cc1C2(c1ccc([16*])cc1)c1ccc([16*])cc1)-c1sc([14*])cc1C3(c1ccc([16*])cc1)c1ccc([16*])cc1']","[0, 0, 0, 0, 0, 2, 3, 4, 5, 35, 7, 9, 1, 10, 13, 166, 38]"
PTB7-Th,COTIC-4F,-5.204782608695651,-3.5391891891891896,-5.26,-4.16,0.667,CB,CN,25.0,6.4,6.4,0.56,56.3,"['[3*]O[3*]', '[4*]CC(CC)CCCC', '[1*]C([6*])=O', '[8*]CC(CC)CCCC', '[14*]c1sc2c([14*])sc(C)c2c1F', '[14*]c1ccc([14*])s1', '[14*]c1cc2c([16*])c3sc(C)cc3c([16*])c2s1']","['[4*]CC(CC)CCCC', '[3*]O[3*]', '[7*]C(C#N)C#N', '[7*]C1C(=O)c2ccccc2C1[7*]', '[7*]C[8*]', '[14*]c1cc([16*])c([14*])s1', '[14*]c1cc2c(s1)-c1sc([14*])cc1C2(CC(CC)CCCC)CC(CC)CCCC']","['[3*]O[3*]', '[4*]CC(CC)CCCC', '[1*]C([6*])=O', '[8*]CC(CC)CCCC', '[14*]c1sc2c([14*])sc(C)c2c1F', '[14*]c1ccc([14*])s1', '[14*]c1cc2c([16*])c3sc(C)cc3c([16*])c2s1', '.', '[4*]CC(CC)CCCC', '[3*]O[3*]', '[7*]C(C#N)C#N', '[7*]C1C(=O)c2ccccc2C1[7*]', '[7*]C[8*]', '[14*]c1cc([16*])c([14*])s1', '[14*]c1cc2c(s1)-c1sc([14*])cc1C2(CC(CC)CCCC)CC(CC)CCCC']","[0, 0, 2, 3, 4, 5, 35, 7, 9, 1, 3, 2, 10, 11, 12, 34, 167]"
PTB7-Th,SiOTIC-4F,-5.204782608695651,-3.5391891891891896,-5.28,-4.11,0.667,CF,CN,25.0,8.6,8.62,0.65,61.4,"['[3*]O[3*]', '[4*]CC(CC)CCCC', '[1*]C([6*])=O', '[8*]CC(CC)CCCC', '[14*]c1sc2c([14*])sc(C)c2c1F', '[14*]c1ccc([14*])s1', '[14*]c1cc2c([16*])c3sc(C)cc3c([16*])c2s1']","['[4*]CC(CC)CCCC', '[3*]O[3*]', '[7*]C(C#N)C#N', '[7*]C1C(=O)c2cc(F)c(F)cc2C1[7*]', '[7*]C[8*]', '[14*]c1cc([16*])c([14*])s1', '[14*]c1cc2c(s1)-c1sc([14*])cc1[Si]2(CC(CC)CCCC)CC(CC)CCCC']","['[3*]O[3*]', '[4*]CC(CC)CCCC', '[1*]C([6*])=O', '[8*]CC(CC)CCCC', '[14*]c1sc2c([14*])sc(C)c2c1F', '[14*]c1ccc([14*])s1', '[14*]c1cc2c([16*])c3sc(C)cc3c([16*])c2s1', '.', '[4*]CC(CC)CCCC', '[3*]O[3*]', '[7*]C(C#N)C#N', '[7*]C1C(=O)c2cc(F)c(F)cc2C1[7*]', '[7*]C[8*]', '[14*]c1cc([16*])c([14*])s1', '[14*]c1cc2c(s1)-c1sc([14*])cc1[Si]2(CC(CC)CCCC)CC(CC)CCCC']","[0, 0, 2, 3, 4, 5, 35, 7, 9, 1, 3, 2, 10, 42, 12, 34, 168]"
P3HT,BTA100,-5.057777777777777,-2.989444444444445,-4.98,-2.81,1.0,CF,_,100.0,1.04,1.04,1.34,47.0,"['[8*]CCCCCC', '[14*]c1sc(C)cc1[16*]', '[14*]c1cc([16*])c(C)s1', '[14*]c1cc([16*])c([14*])s1']","['[3*]OC', '[8*]CC', '[7*]C1SC(=O)N([10*])C1=O', '[8*]CCCCCCCC', '[7*]C[8*]', '[8*]CCCCCC', '[9*]n1nc2c([16*])c([16*])c([16*])c([16*])c2n1', '[14*]c1cc2c(s1)-c1cc3c(cc1C2(c1ccc([16*])cc1)c1ccc([16*])cc1)-c1sc([14*])cc1C3(c1ccc([16*])cc1)c1ccc([16*])cc1']","['[8*]CCCCCC', '[14*]c1sc(C)cc1[16*]', '[14*]c1cc([16*])c(C)s1', '[14*]c1cc([16*])c([14*])s1', '.', '[3*]OC', '[8*]CC', '[7*]C1SC(=O)N([10*])C1=O', '[8*]CCCCCCCC', '[7*]C[8*]', '[8*]CCCCCC', '[9*]n1nc2c([16*])c([16*])c([16*])c([16*])c2n1', '[14*]c1cc2c(s1)-c1cc3c(cc1C2(c1ccc([16*])cc1)c1ccc([16*])cc1)-c1sc([14*])cc1C3(c1ccc([16*])cc1)c1ccc([16*])cc1']","[0, 0, 0, 0, 13, 102, 57, 34, 1, 69, 22, 169, 21, 12, 13, 170, 38]"