Donor,Acceptor,HOMO_D_eV,LUMO_D_eV,HOMO_A_eV,LUMO_A_eV,D_A_ratio_m_m,solvent,solvent_additive,annealing_temperature,PCE_percent,calc_PCE_percent,Voc_V,FF_percent,Donor_BRICS,Acceptor_BRICS,DA_pair_BRICS,DA_tokenized_BRICS
P3HT,DTFBR,-5.057777777777777,-2.989444444444445,-5.54,-3.68,1.0,o-DCB,_,100,3.68,3.59,0.71,62.0,"['CCCCCC', 'Cc1cccs1', 'Cc1cccs1', 'c1ccsc1']","['CC', 'O=C1CSC(=S)N1', 'CCCCCC', 'C', 'c1ccc2nnnc2c1', 'CCCCCCC1(CCCCCC)c2cc3c(cc2-c2cc4c(cc21)-c1sccc1C4(c1ccccc1)c1ccccc1)C(c1ccccc1)(c1ccccc1)c1ccsc1-3']","['CCCCCC', 'Cc1cccs1', 'Cc1cccs1', 'c1ccsc1', '.', 'CC', 'O=C1CSC(=S)N1', 'CCCCCC', 'C', 'c1ccc2nnnc2c1', 'CCCCCCC1(CCCCCC)c2cc3c(cc2-c2cc4c(cc21)-c1sccc1C4(c1ccccc1)c1ccccc1)C(c1ccccc1)(c1ccccc1)c1ccsc1-3']","[0, 0, 0, 0, 0, 0, 12, 5, 5, 6, 1, 21, 69, 12, 11, 43, 205]"
PBT1-C,TPT-2F,-5.449999999999999,-3.41,-5.84,-4.06,1.0,CF,DIO,100,8.33,9.28,0.974,68.6,"['CCCCCCC(C)CCCC', 'CCCCC(C)CC', 'CCCCCCCCCCC(C)CCCCCCCC', 'S', 'Cc1cccs1', 'c1ccsc1', 'O=C1c2cscc2C(=O)c2cscc21', 'c1ccccc1', 'Cc1cc2cc3sccc3cc2s1']","['N#CCC#N', 'O=C1CCc2ccc(F)cc21', 'C', 'CCCCCC', 'c1ccc(C2(c3ccccc3)c3cc4c(cc3-c3sccc32)C(c2ccccc2)(c2ccccc2)c2ccsc2-4)cc1']","['CCCCCCC(C)CCCC', 'CCCCC(C)CC', 'CCCCCCCCCCC(C)CCCCCCCC', 'S', 'Cc1cccs1', 'c1ccsc1', 'O=C1c2cscc2C(=O)c2cscc21', 'c1ccccc1', 'Cc1cc2cc3sccc3cc2s1', '.', 'N#CCC#N', 'O=C1CCc2ccc(F)cc21', 'C', 'CCCCCC', 'c1ccc(C2(c3ccccc3)c3cc4c(cc3-c3sccc32)C(c2ccccc2)(c2ccccc2)c2ccsc2-4)cc1']","[0, 0, 32, 3, 42, 24, 5, 6, 29, 56, 8, 1, 9, 60, 11, 12, 36]"
PBDB-T,6TIC-4F,-5.297714285714285,-3.4170000000000003,-5.45,-4.14,1.0,CB,_,25,11.14,11.14,0.723,67.0,"['CCCCC(C)CC', 'Cc1cccs1', 'c1ccsc1', 'O=C1c2cscc2C(=O)c2cscc21', 'Cc1cc2cc3sccc3cc2s1']","['N#CCC#N', 'O=C1CCc2cc(F)c(F)cc21', 'C', 'CCCCCC', 'c1ccc(C2(c3ccccc3)c3c(sc4ccsc34)-c3sc4c5c(sc4c32)-c2sc3ccsc3c2C5(c2ccccc2)c2ccccc2)cc1']","['CCCCC(C)CC', 'Cc1cccs1', 'c1ccsc1', 'O=C1c2cscc2C(=O)c2cscc21', 'Cc1cc2cc3sccc3cc2s1', '.', 'N#CCC#N', 'O=C1CCc2cc(F)c(F)cc21', 'C', 'CCCCCC', 'c1ccc(C2(c3ccccc3)c3c(sc4ccsc34)-c3sc4c5c(sc4c32)-c2sc3ccsc3c2C5(c2ccccc2)c2ccccc2)cc1']","[0, 0, 0, 0, 0, 0, 3, 5, 6, 29, 8, 1, 9, 39, 11, 12, 13]"
PBDB-T,ITBTR-C2,-5.297714285714285,-3.4170000000000003,-5.3,-3.7,1.0,CB,DIO,25,6.96,6.96,0.89,58.42,"['CCCCC(C)CC', 'Cc1cccs1', 'c1ccsc1', 'O=C1c2cscc2C(=O)c2cscc21', 'Cc1cc2cc3sccc3cc2s1']","['CC', 'CCCCCC', 'N#CC(C#N)=c1nc(=O)/c(=C/c2cccc3nsnc23)s1', 'c1ccc(C2(c3ccccc3)c3cc4c(cc3-c3sc5ccsc5c32)C(c2ccccc2)(c2ccccc2)c2c-4sc3ccsc23)cc1']","['CCCCC(C)CC', 'Cc1cccs1', 'c1ccsc1', 'O=C1c2cscc2C(=O)c2cscc21', 'Cc1cc2cc3sccc3cc2s1', '.', 'CC', 'CCCCCC', 'N#CC(C#N)=c1nc(=O)/c(=C/c2cccc3nsnc23)s1', 'c1ccc(C2(c3ccccc3)c3cc4c(cc3-c3sc5ccsc5c32)C(c2ccccc2)(c2ccccc2)c2c-4sc3ccsc23)cc1']","[0, 0, 0, 0, 0, 0, 0, 3, 5, 6, 29, 8, 1, 21, 12, 82, 14]"
PBDB-T,ITBTR-C4,-5.297714285714285,-3.4170000000000003,-5.3,-3.71,1.0,CB,DIO,25,7.33,7.19,0.9,54.15,"['CCCCC(C)CC', 'Cc1cccs1', 'c1ccsc1', 'O=C1c2cscc2C(=O)c2cscc21', 'Cc1cc2cc3sccc3cc2s1']","['CCCC', 'CCCCCC', 'N#CC(C#N)=c1nc(=O)/c(=C/c2cccc3nsnc23)s1', 'c1ccc(C2(c3ccccc3)c3cc4c(cc3-c3sc5ccsc5c32)C(c2ccccc2)(c2ccccc2)c2c-4sc3ccsc23)cc1']","['CCCCC(C)CC', 'Cc1cccs1', 'c1ccsc1', 'O=C1c2cscc2C(=O)c2cscc21', 'Cc1cc2cc3sccc3cc2s1', '.', 'CCCC', 'CCCCCC', 'N#CC(C#N)=c1nc(=O)/c(=C/c2cccc3nsnc23)s1', 'c1ccc(C2(c3ccccc3)c3cc4c(cc3-c3sc5ccsc5c32)C(c2ccccc2)(c2ccccc2)c2c-4sc3ccsc23)cc1']","[0, 0, 0, 0, 0, 0, 0, 3, 5, 6, 29, 8, 1, 101, 12, 82, 14]"
PBDB-T,ITBTR-C6,-5.297714285714285,-3.4170000000000003,-5.3,-3.71,1.0,CB,DIO,25,8.18,8.09,0.89,57.83,"['CCCCC(C)CC', 'Cc1cccs1', 'c1ccsc1', 'O=C1c2cscc2C(=O)c2cscc21', 'Cc1cc2cc3sccc3cc2s1']","['CCCCCC', 'N#CC(C#N)=c1nc(=O)/c(=C/c2cccc3nsnc23)s1', 'c1ccc(C2(c3ccccc3)c3cc4c(cc3-c3sc5ccsc5c32)C(c2ccccc2)(c2ccccc2)c2c-4sc3ccsc23)cc1']","['CCCCC(C)CC', 'Cc1cccs1', 'c1ccsc1', 'O=C1c2cscc2C(=O)c2cscc21', 'Cc1cc2cc3sccc3cc2s1', '.', 'CCCCCC', 'N#CC(C#N)=c1nc(=O)/c(=C/c2cccc3nsnc23)s1', 'c1ccc(C2(c3ccccc3)c3cc4c(cc3-c3sc5ccsc5c32)C(c2ccccc2)(c2ccccc2)c2c-4sc3ccsc23)cc1']","[0, 0, 0, 0, 0, 0, 0, 0, 3, 5, 6, 29, 8, 1, 12, 82, 14]"
PBDB-T,ITBTR-C8,-5.297714285714285,-3.4170000000000003,-5.28,-3.7,1.0,CB,DIO,25,7.85,7.76,0.9,58.47,"['CCCCC(C)CC', 'Cc1cccs1', 'c1ccsc1', 'O=C1c2cscc2C(=O)c2cscc21', 'Cc1cc2cc3sccc3cc2s1']","['CCCCCCCC', 'CCCCCC', 'N#CC(C#N)=c1nc(=O)/c(=C/c2cccc3nsnc23)s1', 'c1ccc(C2(c3ccccc3)c3cc4c(cc3-c3sc5ccsc5c32)C(c2ccccc2)(c2ccccc2)c2c-4sc3ccsc23)cc1']","['CCCCC(C)CC', 'Cc1cccs1', 'c1ccsc1', 'O=C1c2cscc2C(=O)c2cscc21', 'Cc1cc2cc3sccc3cc2s1', '.', 'CCCCCCCC', 'CCCCCC', 'N#CC(C#N)=c1nc(=O)/c(=C/c2cccc3nsnc23)s1', 'c1ccc(C2(c3ccccc3)c3cc4c(cc3-c3sc5ccsc5c32)C(c2ccccc2)(c2ccccc2)c2c-4sc3ccsc23)cc1']","[0, 0, 0, 0, 0, 0, 0, 3, 5, 6, 29, 8, 1, 20, 12, 82, 14]"
PBDB-T2Cl,IDIC-4H,-5.510000000000001,-3.57,-5.7,-3.87,1.0,CB,DIO,25,4.57,4.58,0.98,45.3,"['CCCCC(C)CC', 'Cc1cccs1', 'Clc1ccsc1', 'O=C1c2cscc2C(=O)c2cscc21', 'c1ccsc1', 'Cc1cc2cc3sccc3cc2s1']","['N#CCC#N', 'O=C1CCc2ccccc21', 'C', 'CCCCCC', 'c1ccc(C2(c3ccccc3)c3cc4c(cc3-c3sccc32)C(c2ccccc2)(c2ccccc2)c2ccsc2-4)cc1']","['CCCCC(C)CC', 'Cc1cccs1', 'Clc1ccsc1', 'O=C1c2cscc2C(=O)c2cscc21', 'c1ccsc1', 'Cc1cc2cc3sccc3cc2s1', '.', 'N#CCC#N', 'O=C1CCc2ccccc21', 'C', 'CCCCCC', 'c1ccc(C2(c3ccccc3)c3cc4c(cc3-c3sccc32)C(c2ccccc2)(c2ccccc2)c2ccsc2-4)cc1']","[0, 0, 0, 0, 0, 3, 5, 161, 29, 6, 8, 1, 9, 10, 11, 12, 36]"
PBDB-T2Cl,IDIC-4F,-5.510000000000001,-3.57,-5.73,-3.93,1.0,CB,DIO,25,7.1,7.08,0.88,61.91,"['CCCCC(C)CC', 'Cc1cccs1', 'Clc1ccsc1', 'O=C1c2cscc2C(=O)c2cscc21', 'c1ccsc1', 'Cc1cc2cc3sccc3cc2s1']","['N#CCC#N', 'O=C1CCc2cc(F)c(F)cc21', 'C', 'CCCCCC', 'c1ccc(C2(c3ccccc3)c3cc4c(cc3-c3sccc32)C(c2ccccc2)(c2ccccc2)c2ccsc2-4)cc1']","['CCCCC(C)CC', 'Cc1cccs1', 'Clc1ccsc1', 'O=C1c2cscc2C(=O)c2cscc21', 'c1ccsc1', 'Cc1cc2cc3sccc3cc2s1', '.', 'N#CCC#N', 'O=C1CCc2cc(F)c(F)cc21', 'C', 'CCCCCC', 'c1ccc(C2(c3ccccc3)c3cc4c(cc3-c3sccc32)C(c2ccccc2)(c2ccccc2)c2ccsc2-4)cc1']","[0, 0, 0, 0, 0, 3, 5, 161, 29, 6, 8, 1, 9, 39, 11, 12, 36]"
PBDB-T2Cl,IDIC-4Cl,-5.510000000000001,-3.57,-5.78,-4.02,1.0,CB,DIO,25,9.24,9.24,0.83,68.69,"['CCCCC(C)CC', 'Cc1cccs1', 'Clc1ccsc1', 'O=C1c2cscc2C(=O)c2cscc21', 'c1ccsc1', 'Cc1cc2cc3sccc3cc2s1']","['N#CCC#N', 'O=C1CCc2cc(Cl)c(Cl)cc21', 'C', 'CCCCCC', 'c1ccc(C2(c3ccccc3)c3cc4c(cc3-c3sccc32)C(c2ccccc2)(c2ccccc2)c2ccsc2-4)cc1']","['CCCCC(C)CC', 'Cc1cccs1', 'Clc1ccsc1', 'O=C1c2cscc2C(=O)c2cscc21', 'c1ccsc1', 'Cc1cc2cc3sccc3cc2s1', '.', 'N#CCC#N', 'O=C1CCc2cc(Cl)c(Cl)cc21', 'C', 'CCCCCC', 'c1ccc(C2(c3ccccc3)c3cc4c(cc3-c3sccc32)C(c2ccccc2)(c2ccccc2)c2ccsc2-4)cc1']","[0, 0, 0, 0, 0, 3, 5, 161, 29, 6, 8, 1, 9, 38, 11, 12, 36]"
PBDB-T,IT-M,-5.297714285714285,-3.4170000000000003,-5.513571428571429,-3.808,1.0,CB,_,100,11.74,11.72,0.95,72.0,"['CCCCC(C)CC', 'Cc1cccs1', 'c1ccsc1', 'O=C1c2cscc2C(=O)c2cscc21', 'Cc1cc2cc3sccc3cc2s1']","['N#CCC#N', 'Cc1ccc2c(c1)CCC2=O', 'C', 'CCCCCC', 'c1ccc(C2(c3ccccc3)c3cc4c(cc3-c3sc5ccsc5c32)C(c2ccccc2)(c2ccccc2)c2c-4sc3ccsc23)cc1']","['CCCCC(C)CC', 'Cc1cccs1', 'c1ccsc1', 'O=C1c2cscc2C(=O)c2cscc21', 'Cc1cc2cc3sccc3cc2s1', '.', 'N#CCC#N', 'Cc1ccc2c(c1)CCC2=O', 'C', 'CCCCCC', 'c1ccc(C2(c3ccccc3)c3cc4c(cc3-c3sc5ccsc5c32)C(c2ccccc2)(c2ccccc2)c2c-4sc3ccsc23)cc1']","[0, 0, 0, 0, 0, 0, 3, 5, 6, 29, 8, 1, 9, 15, 11, 12, 14]"
PBDB-T,IDT-O-IC,-5.297714285714285,-3.4170000000000003,-5.77,-3.79,0.833,o-DCB,_,25,6.23,6.22,0.84,63.0,"['CCCCC(C)CC', 'Cc1cccs1', 'c1ccsc1', 'O=C1c2cscc2C(=O)c2cscc21', 'Cc1cc2cc3sccc3cc2s1']","['CCCCCC', 'O', 'N#CCC#N', 'O=C1CCc2ccccc21', 'C', 'c1ccc(C2(c3ccccc3)c3cc4c(cc3-c3sccc32)C(c2ccccc2)(c2ccccc2)c2ccsc2-4)cc1']","['CCCCC(C)CC', 'Cc1cccs1', 'c1ccsc1', 'O=C1c2cscc2C(=O)c2cscc21', 'Cc1cc2cc3sccc3cc2s1', '.', 'CCCCCC', 'O', 'N#CCC#N', 'O=C1CCc2ccccc21', 'C', 'c1ccc(C2(c3ccccc3)c3cc4c(cc3-c3sccc32)C(c2ccccc2)(c2ccccc2)c2ccsc2-4)cc1']","[0, 0, 0, 0, 0, 3, 5, 6, 29, 8, 1, 12, 2, 9, 10, 11, 36]"
PBDB-T,spiro-IDT-O-IC,-5.297714285714285,-3.4170000000000003,-5.68,-3.79,0.556,o-DCB,_,25,4.74,4.71,0.83,55.0,"['CCCCC(C)CC', 'Cc1cccs1', 'c1ccsc1', 'O=C1c2cscc2C(=O)c2cscc21', 'Cc1cc2cc3sccc3cc2s1']","['CCCCCC', 'O', 'N#CCC#N', 'O=C1CCc2ccccc21', 'C', 'c1ccc2c(c1)-c1ccccc1C21c2cc3c(cc2-c2sccc21)C1(c2ccccc2-c2ccccc21)c1ccsc1-3']","['CCCCC(C)CC', 'Cc1cccs1', 'c1ccsc1', 'O=C1c2cscc2C(=O)c2cscc21', 'Cc1cc2cc3sccc3cc2s1', '.', 'CCCCCC', 'O', 'N#CCC#N', 'O=C1CCc2ccccc21', 'C', 'c1ccc2c(c1)-c1ccccc1C21c2cc3c(cc2-c2sccc21)C1(c2ccccc2-c2ccccc21)c1ccsc1-3']","[0, 0, 0, 0, 0, 3, 5, 6, 29, 8, 1, 12, 2, 9, 10, 11, 210]"
PBDB-T,ICBF,-5.297714285714285,-3.4170000000000003,-5.64,-3.8,1.0,CB,_,25,6.07,6.13,0.99,60.1,"['CCCCC(C)CC', 'Cc1cccs1', 'c1ccsc1', 'O=C1c2cscc2C(=O)c2cscc21', 'Cc1cc2cc3sccc3cc2s1']","['N#CCC#N', 'O=C1CCc2ccccc21', 'C', 'c1ccsc1', 'CCCCCCCCC1(CCCCCCCC)c2ccccc2-c2cc3c(cc21)-c1ccccc1C3(CCCCCCCC)CCCCCCCC']","['CCCCC(C)CC', 'Cc1cccs1', 'c1ccsc1', 'O=C1c2cscc2C(=O)c2cscc21', 'Cc1cc2cc3sccc3cc2s1', '.', 'N#CCC#N', 'O=C1CCc2ccccc21', 'C', 'c1ccsc1', 'CCCCCCCCC1(CCCCCCCC)c2ccccc2-c2cc3c(cc21)-c1ccccc1C3(CCCCCCCC)CCCCCCCC']","[0, 0, 0, 0, 0, 0, 3, 5, 6, 29, 8, 1, 9, 10, 11, 6, 131]"
PBDB-T,FICBF-O,-5.297714285714285,-3.4170000000000003,-5.72,-3.85,1.0,CB,_,25,5.54,5.54,0.96,54.5,"['CCCCC(C)CC', 'Cc1cccs1', 'c1ccsc1', 'O=C1c2cscc2C(=O)c2cscc21', 'Cc1cc2cc3sccc3cc2s1']","['N#CCC#N', 'O=C1CCc2cc(F)c(F)cc21', 'C', 'CCCCCCCC', 'c1ccsc1', 'CCCCCCCCC1(CCCCCCCC)c2ccccc2-c2cc3c(cc21)-c1ccccc1C3(CCCCCCCC)CCCCCCCC']","['CCCCC(C)CC', 'Cc1cccs1', 'c1ccsc1', 'O=C1c2cscc2C(=O)c2cscc21', 'Cc1cc2cc3sccc3cc2s1', '.', 'N#CCC#N', 'O=C1CCc2cc(F)c(F)cc21', 'C', 'CCCCCCCC', 'c1ccsc1', 'CCCCCCCCC1(CCCCCCCC)c2ccccc2-c2cc3c(cc21)-c1ccccc1C3(CCCCCCCC)CCCCCCCC']","[0, 0, 0, 0, 0, 3, 5, 6, 29, 8, 1, 9, 39, 11, 20, 6, 131]"
PBDB-T,IDT-T,-5.297714285714285,-3.4170000000000003,-5.49,-3.985,1.0,CB,_,25,6.36,6.36,0.952,59.62,"['CCCCC(C)CC', 'Cc1cccs1', 'c1ccsc1', 'O=C1c2cscc2C(=O)c2cscc21', 'Cc1cc2cc3sccc3cc2s1']","['N#CCC#N', 'O=C1CCc2ccccc21', 'C', 'CCCCCC', 'c1ccsc1', 'c1ccc(C2(c3ccccc3)c3cc4c(cc3-c3sccc32)C(c2ccccc2)(c2ccccc2)c2ccsc2-4)cc1']","['CCCCC(C)CC', 'Cc1cccs1', 'c1ccsc1', 'O=C1c2cscc2C(=O)c2cscc21', 'Cc1cc2cc3sccc3cc2s1', '.', 'N#CCC#N', 'O=C1CCc2ccccc21', 'C', 'CCCCCC', 'c1ccsc1', 'c1ccc(C2(c3ccccc3)c3cc4c(cc3-c3sccc32)C(c2ccccc2)(c2ccccc2)c2ccsc2-4)cc1']","[0, 0, 0, 0, 0, 3, 5, 6, 29, 8, 1, 9, 10, 11, 12, 6, 36]"
PBDB-T,SiIDT-IC,-5.297714285714285,-3.4170000000000003,-5.47,-3.78,1.0,CB,_,110,8.16,8.16,0.92,65.56,"['CCCCC(C)CC', 'Cc1cccs1', 'c1ccsc1', 'O=C1c2cscc2C(=O)c2cscc21', 'Cc1cc2cc3sccc3cc2s1']","['N#CCC#N', 'O=C1CCc2ccccc21', 'C', 'CCCCCC', 'c1ccc([Si]2(c3ccccc3)c3cc4c(cc3-c3sccc32)[Si](c2ccccc2)(c2ccccc2)c2ccsc2-4)cc1']","['CCCCC(C)CC', 'Cc1cccs1', 'c1ccsc1', 'O=C1c2cscc2C(=O)c2cscc21', 'Cc1cc2cc3sccc3cc2s1', '.', 'N#CCC#N', 'O=C1CCc2ccccc21', 'C', 'CCCCCC', 'c1ccc([Si]2(c3ccccc3)c3cc4c(cc3-c3sccc32)[Si](c2ccccc2)(c2ccccc2)c2ccsc2-4)cc1']","[0, 0, 0, 0, 0, 0, 3, 5, 6, 29, 8, 1, 9, 10, 11, 12, 211]"
PBDB-T,IDIC,-5.297714285714285,-3.4170000000000003,-5.706,-4.002666666666667,1.0,CB,_,110,8.83,8.84,0.81,65.36,"['CCCCC(C)CC', 'Cc1cccs1', 'c1ccsc1', 'O=C1c2cscc2C(=O)c2cscc21', 'Cc1cc2cc3sccc3cc2s1']","['N#CCC#N', 'O=C1CCc2ccccc21', 'C', 'CCCCCCC1(CCCCCC)c2cc3c(cc2-c2sccc21)C(CCCCCC)(CCCCCC)c1ccsc1-3']","['CCCCC(C)CC', 'Cc1cccs1', 'c1ccsc1', 'O=C1c2cscc2C(=O)c2cscc21', 'Cc1cc2cc3sccc3cc2s1', '.', 'N#CCC#N', 'O=C1CCc2ccccc21', 'C', 'CCCCCCC1(CCCCCC)c2cc3c(cc2-c2sccc21)C(CCCCCC)(CCCCCC)c1ccsc1-3']","[0, 0, 0, 0, 0, 0, 0, 3, 5, 6, 29, 8, 1, 9, 10, 11, 28]"
PBDB-T,IDTBOR,-5.297714285714285,-3.4170000000000003,-5.49,-3.93,0.5,CB,_,130,7.74,7.78,0.89,54.67,"['CCCCC(C)CC', 'Cc1cccs1', 'c1ccsc1', 'O=C1c2cscc2C(=O)c2cscc21', 'Cc1cc2cc3sccc3cc2s1']","['CC', 'O=C1CSC(=S)N1', 'C', 'c1ccc2nonc2c1', 'CCCCCCC1(CCCCCC)c2cc3c(cc2-c2sccc21)C(CCCCCC)(CCCCCC)c1ccsc1-3']","['CCCCC(C)CC', 'Cc1cccs1', 'c1ccsc1', 'O=C1c2cscc2C(=O)c2cscc21', 'Cc1cc2cc3sccc3cc2s1', '.', 'CC', 'O=C1CSC(=S)N1', 'C', 'c1ccc2nonc2c1', 'CCCCCCC1(CCCCCC)c2cc3c(cc2-c2sccc21)C(CCCCCC)(CCCCCC)c1ccsc1-3']","[0, 0, 0, 0, 0, 0, 3, 5, 6, 29, 8, 1, 21, 69, 11, 182, 28]"
PBDB-T,IDTBSR,-5.297714285714285,-3.4170000000000003,-5.41,-3.88,0.5,CB,_,130,6.95,6.94,0.95,52.38,"['CCCCC(C)CC', 'Cc1cccs1', 'c1ccsc1', 'O=C1c2cscc2C(=O)c2cscc21', 'Cc1cc2cc3sccc3cc2s1']","['CC', 'O=C1CSC(=S)N1', 'C', 'c1ccc2n[se]nc2c1', 'CCCCCCC1(CCCCCC)c2cc3c(cc2-c2sccc21)C(CCCCCC)(CCCCCC)c1ccsc1-3']","['CCCCC(C)CC', 'Cc1cccs1', 'c1ccsc1', 'O=C1c2cscc2C(=O)c2cscc21', 'Cc1cc2cc3sccc3cc2s1', '.', 'CC', 'O=C1CSC(=S)N1', 'C', 'c1ccc2n[se]nc2c1', 'CCCCCCC1(CCCCCC)c2cc3c(cc2-c2sccc21)C(CCCCCC)(CCCCCC)c1ccsc1-3']","[0, 0, 0, 0, 0, 0, 3, 5, 6, 29, 8, 1, 21, 69, 11, 212, 28]"
PBDB-T,TTIC-M,-5.297714285714285,-3.4170000000000003,-5.49,-4.03,0.667,DCB,DIO,175,11.48,11.49,0.8,70.0,"['CCCCC(C)CC', 'Cc1cccs1', 'c1ccsc1', 'O=C1c2cscc2C(=O)c2cscc21', 'Cc1cc2cc3sccc3cc2s1']","['N#CCC#N', 'Cc1ccc2c(c1)CCC2=O', 'C', 'CCCCCC', 'c1ccc(C2(c3ccccc3)c3ccsc3-c3sc4c5c(sc4c32)-c2sccc2C5(c2ccccc2)c2ccccc2)cc1']","['CCCCC(C)CC', 'Cc1cccs1', 'c1ccsc1', 'O=C1c2cscc2C(=O)c2cscc21', 'Cc1cc2cc3sccc3cc2s1', '.', 'N#CCC#N', 'Cc1ccc2c(c1)CCC2=O', 'C', 'CCCCCC', 'c1ccc(C2(c3ccccc3)c3ccsc3-c3sc4c5c(sc4c32)-c2sccc2C5(c2ccccc2)c2ccccc2)cc1']","[0, 0, 0, 0, 0, 0, 3, 5, 6, 29, 8, 1, 9, 15, 11, 12, 88]"
J52,ITIC,-5.218571428571429,-3.341428571428572,-5.574146341463415,-3.915,0.667,CF,_,25,3.78,3.77,0.803,43.2,"['CCCCCCCCC(C)CCCCCC', 'CCCCC(C)CC', 'CCCCC(C)CC', 'c1ccsc1', 'Cc1cccs1', 'Fc1cc2nnnc2cc1F', 'Cc1cc2cc3sccc3cc2s1']","['N#CCC#N', 'O=C1CCc2ccccc21', 'C', 'CCCCCC', 'c1ccc(C2(c3ccccc3)c3cc4c(cc3-c3sc5ccsc5c32)C(c2ccccc2)(c2ccccc2)c2c-4sc3ccsc23)cc1']","['CCCCCCCCC(C)CCCCCC', 'CCCCC(C)CC', 'CCCCC(C)CC', 'c1ccsc1', 'Cc1cccs1', 'Fc1cc2nnnc2cc1F', 'Cc1cc2cc3sccc3cc2s1', '.', 'N#CCC#N', 'O=C1CCc2ccccc21', 'C', 'CCCCCC', 'c1ccc(C2(c3ccccc3)c3cc4c(cc3-c3sc5ccsc5c32)C(c2ccccc2)(c2ccccc2)c2c-4sc3ccsc23)cc1']","[0, 0, 0, 0, 16, 3, 3, 6, 5, 18, 8, 1, 9, 10, 11, 12, 14]"
J52-Cl,ITIC,-5.53,-5.38,-5.574146341463415,-3.915,0.667,CF,_,25,11.53,11.52,0.956,70.2,"['CCCCCCCCC(C)CCCCCC', 'CCCCC(C)CC', 'CCCCC(C)CC', 'Clc1ccsc1', 'Cc1cccs1', 'c1ccsc1', 'Fc1cc2nnnc2cc1F', 'Cc1cc2cc3sccc3cc2s1']","['N#CCC#N', 'O=C1CCc2ccccc21', 'C', 'CCCCCC', 'c1ccc(C2(c3ccccc3)c3cc4c(cc3-c3sc5ccsc5c32)C(c2ccccc2)(c2ccccc2)c2c-4sc3ccsc23)cc1']","['CCCCCCCCC(C)CCCCCC', 'CCCCC(C)CC', 'CCCCC(C)CC', 'Clc1ccsc1', 'Cc1cccs1', 'c1ccsc1', 'Fc1cc2nnnc2cc1F', 'Cc1cc2cc3sccc3cc2s1', '.', 'N#CCC#N', 'O=C1CCc2ccccc21', 'C', 'CCCCCC', 'c1ccc(C2(c3ccccc3)c3cc4c(cc3-c3sc5ccsc5c32)C(c2ccccc2)(c2ccccc2)c2c-4sc3ccsc23)cc1']","[0, 0, 0, 16, 3, 3, 161, 5, 6, 18, 8, 1, 9, 10, 11, 12, 14]"
PBDB-T,IDTT2F,-5.297714285714285,-3.4170000000000003,-5.57,-4.03,1.0,DCB,_,25,8.85,8.85,0.81,59.0,"['CCCCC(C)CC', 'Cc1cccs1', 'c1ccsc1', 'O=C1c2cscc2C(=O)c2cscc21', 'Cc1cc2cc3sccc3cc2s1']","['N#CCC#N', 'O=C1CCc2cc(F)c(F)cc21', 'C', 'CCCCCC', 'c1ccsc1', 'c1ccc(C2(c3ccccc3)c3cc4c(cc3-c3sccc32)C(c2ccccc2)(c2ccccc2)c2ccsc2-4)cc1']","['CCCCC(C)CC', 'Cc1cccs1', 'c1ccsc1', 'O=C1c2cscc2C(=O)c2cscc21', 'Cc1cc2cc3sccc3cc2s1', '.', 'N#CCC#N', 'O=C1CCc2cc(F)c(F)cc21', 'C', 'CCCCCC', 'c1ccsc1', 'c1ccc(C2(c3ccccc3)c3cc4c(cc3-c3sccc32)C(c2ccccc2)(c2ccccc2)c2ccsc2-4)cc1']","[0, 0, 0, 0, 0, 3, 5, 6, 29, 8, 1, 9, 39, 11, 12, 6, 36]"
PBDB-T,IDTIC,-5.297714285714285,-3.4170000000000003,-5.885,-3.91,1.0,CB,DIO,25,6.05,6.03,0.89,61.9,"['CCCCC(C)CC', 'Cc1cccs1', 'c1ccsc1', 'O=C1c2cscc2C(=O)c2cscc21', 'Cc1cc2cc3sccc3cc2s1']","['N#CCC#N', 'O=C1CCc2ccccc21', 'C', 'CCCCCCCCC(CCCCCC)CC1(CCCCCCCCC(C)CCCCCC)c2cc3c(cc2-c2sccc21)C(CC(CCCCCC)CCCCCCCC)(CC(CCCCCC)CCCCCCCC)c1ccsc1-3']","['CCCCC(C)CC', 'Cc1cccs1', 'c1ccsc1', 'O=C1c2cscc2C(=O)c2cscc21', 'Cc1cc2cc3sccc3cc2s1', '.', 'N#CCC#N', 'O=C1CCc2ccccc21', 'C', 'CCCCCCCCC(CCCCCC)CC1(CCCCCCCCC(C)CCCCCC)c2cc3c(cc2-c2sccc21)C(CC(CCCCCC)CCCCCCCC)(CC(CCCCCC)CCCCCCCC)c1ccsc1-3']","[0, 0, 0, 0, 0, 0, 0, 3, 5, 6, 29, 8, 1, 9, 10, 11, 203]"
PBDB-T,ITCT,-5.297714285714285,-3.4170000000000003,-5.596666666666667,-3.796666666666667,1.0,CB,_,25,10.99,10.99,0.85,72.3,"['CCCCC(C)CC', 'Cc1cccs1', 'c1ccsc1', 'O=C1c2cscc2C(=O)c2cscc21', 'Cc1cc2cc3sccc3cc2s1']","['N#CCC#N', 'O=C1CCc2cscc21', 'C', 'CCCCCC', 'c1ccc(C2(c3ccccc3)c3cc4c(cc3-c3sc5ccsc5c32)C(c2ccccc2)(c2ccccc2)c2c-4sc3ccsc23)cc1']","['CCCCC(C)CC', 'Cc1cccs1', 'c1ccsc1', 'O=C1c2cscc2C(=O)c2cscc21', 'Cc1cc2cc3sccc3cc2s1', '.', 'N#CCC#N', 'O=C1CCc2cscc21', 'C', 'CCCCCC', 'c1ccc(C2(c3ccccc3)c3cc4c(cc3-c3sc5ccsc5c32)C(c2ccccc2)(c2ccccc2)c2c-4sc3ccsc23)cc1']","[0, 0, 0, 0, 0, 0, 3, 5, 6, 29, 8, 1, 9, 40, 11, 12, 14]"
P3HT,IDT-CA,-5.057777777777777,-2.989444444444445,-5.59,-3.64,1.25,CB,CN,25,4.19,4.18,0.84,64.0,"['CCCCCC', 'Cc1cccs1', 'Cc1cccs1', 'c1ccsc1']","['O', 'CC', 'N#CCC=O', 'C', 'CCCCCC', 'c1ccc2nsnc2c1', 'c1ccc(C2(c3ccccc3)c3cc4c(cc3-c3sccc32)C(c2ccccc2)(c2ccccc2)c2ccsc2-4)cc1']","['CCCCCC', 'Cc1cccs1', 'Cc1cccs1', 'c1ccsc1', '.', 'O', 'CC', 'N#CCC=O', 'C', 'CCCCCC', 'c1ccc2nsnc2c1', 'c1ccc(C2(c3ccccc3)c3cc4c(cc3-c3sccc32)C(c2ccccc2)(c2ccccc2)c2ccsc2-4)cc1']","[0, 0, 0, 0, 0, 12, 5, 5, 6, 1, 2, 21, 91, 11, 12, 34, 36]"
PBDB-T,IDTO-T-4F,-5.297714285714285,-3.4170000000000003,-5.49,-3.88,0.833,CF,DIO,25,12.62,12.64,0.864,72.7,"['CCCCC(C)CC', 'Cc1cccs1', 'c1ccsc1', 'O=C1c2cscc2C(=O)c2cscc21', 'Cc1cc2cc3sccc3cc2s1']","['CCCCCCCC', 'O', 'N#CCC#N', 'O=C1CCc2cc(F)c(F)cc21', 'C', 'CCCCCC', 'c1ccsc1', 'c1ccc(C2(c3ccccc3)c3cc4c(cc3-c3sccc32)C(c2ccccc2)(c2ccccc2)c2ccsc2-4)cc1']","['CCCCC(C)CC', 'Cc1cccs1', 'c1ccsc1', 'O=C1c2cscc2C(=O)c2cscc21', 'Cc1cc2cc3sccc3cc2s1', '.', 'CCCCCCCC', 'O', 'N#CCC#N', 'O=C1CCc2cc(F)c(F)cc21', 'C', 'CCCCCC', 'c1ccsc1', 'c1ccc(C2(c3ccccc3)c3cc4c(cc3-c3sccc32)C(c2ccccc2)(c2ccccc2)c2ccsc2-4)cc1']","[0, 0, 0, 3, 5, 6, 29, 8, 1, 20, 2, 9, 39, 11, 12, 6, 36]"
PBDB-T,IDT2Se,-5.297714285714285,-3.4170000000000003,-5.41,-3.87,1.0,CB,_,80,9.11,9.11,0.88,59.8,"['CCCCC(C)CC', 'Cc1cccs1', 'c1ccsc1', 'O=C1c2cscc2C(=O)c2cscc21', 'Cc1cc2cc3sccc3cc2s1']","['N#CCC#N', 'O=C1CCc2ccccc21', 'CCCCCC', 'Cc1ccc(-c2cc3c(s2)-c2cc4c(cc2C3(c2ccccc2)c2ccccc2)-c2sc(-c3ccc(C)[se]3)cc2C4(c2ccccc2)c2ccccc2)[se]1']","['CCCCC(C)CC', 'Cc1cccs1', 'c1ccsc1', 'O=C1c2cscc2C(=O)c2cscc21', 'Cc1cc2cc3sccc3cc2s1', '.', 'N#CCC#N', 'O=C1CCc2ccccc21', 'CCCCCC', 'Cc1ccc(-c2cc3c(s2)-c2cc4c(cc2C3(c2ccccc2)c2ccccc2)-c2sc(-c3ccc(C)[se]3)cc2C4(c2ccccc2)c2ccccc2)[se]1']","[0, 0, 0, 0, 0, 0, 0, 3, 5, 6, 29, 8, 1, 9, 10, 12, 213]"
PBDB-T,IDT2Se-4F,-5.297714285714285,-3.4170000000000003,-5.51,-4.0,1.0,CB,_,80,11.03,11.03,0.79,65.4,"['CCCCC(C)CC', 'Cc1cccs1', 'c1ccsc1', 'O=C1c2cscc2C(=O)c2cscc21', 'Cc1cc2cc3sccc3cc2s1']","['N#CCC#N', 'O=C1CCc2cc(F)c(F)cc21', 'CCCCCC', 'Cc1ccc(-c2cc3c(s2)-c2cc4c(cc2C3(c2ccccc2)c2ccccc2)-c2sc(-c3ccc(C)[se]3)cc2C4(c2ccccc2)c2ccccc2)[se]1']","['CCCCC(C)CC', 'Cc1cccs1', 'c1ccsc1', 'O=C1c2cscc2C(=O)c2cscc21', 'Cc1cc2cc3sccc3cc2s1', '.', 'N#CCC#N', 'O=C1CCc2cc(F)c(F)cc21', 'CCCCCC', 'Cc1ccc(-c2cc3c(s2)-c2cc4c(cc2C3(c2ccccc2)c2ccccc2)-c2sc(-c3ccc(C)[se]3)cc2C4(c2ccccc2)c2ccccc2)[se]1']","[0, 0, 0, 0, 0, 0, 0, 3, 5, 6, 29, 8, 1, 9, 39, 12, 213]"
PBDT-Se-TAZ,ITIC,-5.23,-3.45,-5.574146341463415,-3.915,1.0,CF,DIO,25,10.07,10.07,0.81,66.7,"['CCCCCC', 'CCCCCCCCC(CCCCCC)Cc1ccc(-c2c3ccsc3c(-c3ccc(CCCCCCCCC(C)CCCCCC)[se]3)c3cc(C)sc23)[se]1', 'Cc1cccs1', 'c1ccsc1', 'Fc1cc2nnnc2cc1F']","['N#CCC#N', 'O=C1CCc2ccccc21', 'C', 'CCCCCC', 'c1ccc(C2(c3ccccc3)c3cc4c(cc3-c3sc5ccsc5c32)C(c2ccccc2)(c2ccccc2)c2c-4sc3ccsc23)cc1']","['CCCCCC', 'CCCCCCCCC(CCCCCC)Cc1ccc(-c2c3ccsc3c(-c3ccc(CCCCCCCCC(C)CCCCCC)[se]3)c3cc(C)sc23)[se]1', 'Cc1cccs1', 'c1ccsc1', 'Fc1cc2nnnc2cc1F', '.', 'N#CCC#N', 'O=C1CCc2ccccc21', 'C', 'CCCCCC', 'c1ccc(C2(c3ccccc3)c3cc4c(cc3-c3sc5ccsc5c32)C(c2ccccc2)(c2ccccc2)c2c-4sc3ccsc23)cc1']","[0, 0, 0, 0, 0, 0, 12, 214, 5, 6, 18, 1, 9, 10, 11, 12, 14]"