Donor,Acceptor,HOMO_D_eV,LUMO_D_eV,HOMO_A_eV,LUMO_A_eV,D_A_ratio_m_m,solvent,solvent_additive,annealing_temperature,PCE_percent,calc_PCE_percent,Voc_V,FF_percent,Donor_BRICS,Acceptor_BRICS,DA_pair_BRICS,DA_tokenized_BRICS
PBDB-T,IDT-EDOT,-5.297714285714285,-3.4170000000000003,-5.43,-3.8,0.833,o-DCB,DIO,25,11.32,11.38,0.86,62.0,"['CCCCC(C)CC', 'Cc1cccs1', 'c1ccsc1', 'O=C1c2cscc2C(=O)c2cscc21', 'Cc1cc2cc3sccc3cc2s1']","['N#CCC#N', 'O=C1CCc2cc(F)c(F)cc21', 'C', 'CCCCCC', 'c1scc2c1OCCO2', 'c1ccc(C2(c3ccccc3)c3cc4c(cc3-c3sccc32)C(c2ccccc2)(c2ccccc2)c2ccsc2-4)cc1']","['CCCCC(C)CC', 'Cc1cccs1', 'c1ccsc1', 'O=C1c2cscc2C(=O)c2cscc21', 'Cc1cc2cc3sccc3cc2s1', '.', 'N#CCC#N', 'O=C1CCc2cc(F)c(F)cc21', 'C', 'CCCCCC', 'c1scc2c1OCCO2', 'c1ccc(C2(c3ccccc3)c3cc4c(cc3-c3sccc32)C(c2ccccc2)(c2ccccc2)c2ccsc2-4)cc1']","[0, 0, 0, 0, 0, 3, 5, 6, 29, 8, 1, 9, 39, 11, 12, 134, 36]"
PBDB-T,IDT-PDOT,-5.297714285714285,-3.4170000000000003,-5.39,-3.77,2.0,o-DCB,_,25,2.18,2.19,0.85,48.9,"['CCCCC(C)CC', 'Cc1cccs1', 'c1ccsc1', 'O=C1c2cscc2C(=O)c2cscc21', 'Cc1cc2cc3sccc3cc2s1']","['N#CCC#N', 'O=C1CCc2cc(F)c(F)cc21', 'C', 'CCCCCC', 'c1scc2c1OCCCO2', 'c1ccc(C2(c3ccccc3)c3cc4c(cc3-c3sccc32)C(c2ccccc2)(c2ccccc2)c2ccsc2-4)cc1']","['CCCCC(C)CC', 'Cc1cccs1', 'c1ccsc1', 'O=C1c2cscc2C(=O)c2cscc21', 'Cc1cc2cc3sccc3cc2s1', '.', 'N#CCC#N', 'O=C1CCc2cc(F)c(F)cc21', 'C', 'CCCCCC', 'c1scc2c1OCCCO2', 'c1ccc(C2(c3ccccc3)c3cc4c(cc3-c3sccc32)C(c2ccccc2)(c2ccccc2)c2ccsc2-4)cc1']","[0, 0, 0, 0, 0, 3, 5, 6, 29, 8, 1, 9, 39, 11, 12, 135, 36]"
PTB7-Th,p-IDTIDT-IC,-5.204782608695651,-3.5391891891891896,-5.42,-3.82,0.667,o-DCB,_,150,6.48,6.47,0.94,47.5,"['O', 'CCCCC(C)CC', 'C=O', 'CCCCC(C)CC', 'Cc1scc2scc(F)c12', 'c1ccsc1', 'Cc1cc2cc3sccc3cc2s1']","['N#CCC#N', 'O=C1CCc2ccccc21', 'C', 'CCCCCC', 'c1ccc(C2(c3ccccc3)c3cc4c(cc3-c3sccc32)C(c2ccccc2)(c2ccccc2)c2c-4sc3c4c(sc23)-c2cc3c(cc2C4(c2ccccc2)c2ccccc2)-c2sccc2C3(c2ccccc2)c2ccccc2)cc1']","['O', 'CCCCC(C)CC', 'C=O', 'CCCCC(C)CC', 'Cc1scc2scc(F)c12', 'c1ccsc1', 'Cc1cc2cc3sccc3cc2s1', '.', 'N#CCC#N', 'O=C1CCc2ccccc21', 'C', 'CCCCCC', 'c1ccc(C2(c3ccccc3)c3cc4c(cc3-c3sccc32)C(c2ccccc2)(c2ccccc2)c2c-4sc3c4c(sc23)-c2cc3c(cc2C4(c2ccccc2)c2ccccc2)-c2sccc2C3(c2ccccc2)c2ccccc2)cc1']","[0, 0, 0, 0, 2, 3, 4, 3, 33, 6, 8, 1, 9, 10, 11, 12, 136]"
PBDB-TF,IDT-C6,-5.497142857142857,-3.6428571428571423,-5.59,-3.35,1.0,CF,DIO,100,12.5,12.43,0.96,74.0,"['CCCCC(C)CC', 'Cc1cccs1', 'Fc1ccsc1', 'O=C1c2cscc2C(=O)c2cscc21', 'c1ccsc1', 'Cc1cc2cc3sccc3cc2s1']","['N#CCC#N', 'Cc1ccc2c(c1)CCC2=O', 'C', 'CCCCCCC1(CCCCCC)c2cc3c(cc2-c2sccc21)C(CCCCCC)(CCCCCC)c1ccsc1-3']","['CCCCC(C)CC', 'Cc1cccs1', 'Fc1ccsc1', 'O=C1c2cscc2C(=O)c2cscc21', 'c1ccsc1', 'Cc1cc2cc3sccc3cc2s1', '.', 'N#CCC#N', 'Cc1ccc2c(c1)CCC2=O', 'C', 'CCCCCCC1(CCCCCC)c2cc3c(cc2-c2sccc21)C(CCCCCC)(CCCCCC)c1ccsc1-3']","[0, 0, 0, 0, 0, 0, 3, 5, 23, 29, 6, 8, 1, 9, 15, 11, 28]"
PBDB-TF,IDT-PhC6,-5.497142857142857,-3.6428571428571423,-5.56,-3.32,1.0,CF,DIO,100,5.6,5.59,1.0,43.0,"['CCCCC(C)CC', 'Cc1cccs1', 'Fc1ccsc1', 'O=C1c2cscc2C(=O)c2cscc21', 'c1ccsc1', 'Cc1cc2cc3sccc3cc2s1']","['N#CCC#N', 'Cc1ccc2c(c1)CCC2=O', 'C', 'CCCCCC', 'c1ccc(C2(c3ccccc3)c3cc4c(cc3-c3sccc32)C(c2ccccc2)(c2ccccc2)c2ccsc2-4)cc1']","['CCCCC(C)CC', 'Cc1cccs1', 'Fc1ccsc1', 'O=C1c2cscc2C(=O)c2cscc21', 'c1ccsc1', 'Cc1cc2cc3sccc3cc2s1', '.', 'N#CCC#N', 'Cc1ccc2c(c1)CCC2=O', 'C', 'CCCCCC', 'c1ccc(C2(c3ccccc3)c3cc4c(cc3-c3sccc32)C(c2ccccc2)(c2ccccc2)c2ccsc2-4)cc1']","[0, 0, 0, 0, 0, 3, 5, 23, 29, 6, 8, 1, 9, 15, 11, 12, 36]"
PTB7-Th,IDT-2BM,-5.204782608695651,-3.5391891891891896,-5.586666666666666,-4.083333333333333,0.667,CB,DPE,25,3.97,3.99,0.826,52.0,"['O', 'CCCCC(C)CC', 'C=O', 'CCCCC(C)CC', 'Cc1scc2scc(F)c12', 'c1ccsc1', 'Cc1cc2cc3sccc3cc2s1']","['N#CCC#N', 'C', 'CCCCCC', 'c1ccc2nsnc2c1', 'c1ccc(C2(c3ccccc3)c3cc4c(cc3-c3sccc32)C(c2ccccc2)(c2ccccc2)c2ccsc2-4)cc1']","['O', 'CCCCC(C)CC', 'C=O', 'CCCCC(C)CC', 'Cc1scc2scc(F)c12', 'c1ccsc1', 'Cc1cc2cc3sccc3cc2s1', '.', 'N#CCC#N', 'C', 'CCCCCC', 'c1ccc2nsnc2c1', 'c1ccc(C2(c3ccccc3)c3cc4c(cc3-c3sccc32)C(c2ccccc2)(c2ccccc2)c2ccsc2-4)cc1']","[0, 0, 0, 0, 2, 3, 4, 3, 33, 6, 8, 1, 9, 11, 12, 34, 36]"
PTB7-Th,DTNR,-5.204782608695651,-3.5391891891891896,-5.22,-3.5,0.667,CB,CN,25,9.51,9.51,1.08,56.0,"['O', 'CCCCC(C)CC', 'C=O', 'CCCCC(C)CC', 'Cc1scc2scc(F)c12', 'c1ccsc1', 'Cc1cc2cc3sccc3cc2s1']","['CC', 'O=C1CSC(=S)N1', 'C', 'c1ccc2nsnc2c1', 'CCCCC(CC)CC1(CC(CC)CCCC)c2ccsc2-c2c1ccc1c3c(ccc21)C(CC(CC)CCCC)(CC(CC)CCCC)c1ccsc1-3']","['O', 'CCCCC(C)CC', 'C=O', 'CCCCC(C)CC', 'Cc1scc2scc(F)c12', 'c1ccsc1', 'Cc1cc2cc3sccc3cc2s1', '.', 'CC', 'O=C1CSC(=S)N1', 'C', 'c1ccc2nsnc2c1', 'CCCCC(CC)CC1(CC(CC)CCCC)c2ccsc2-c2c1ccc1c3c(ccc21)C(CC(CC)CCCC)(CC(CC)CCCC)c1ccsc1-3']","[0, 0, 0, 0, 2, 3, 4, 3, 33, 6, 8, 1, 21, 69, 11, 34, 138]"
PBDB-T,DTNIC6,-5.297714285714285,-3.4170000000000003,-5.87,-3.92,1.0,CB,_,25,3.39,3.38,0.96,45.63,"['CCCCC(C)CC', 'Cc1cccs1', 'c1ccsc1', 'O=C1c2cscc2C(=O)c2cscc21', 'Cc1cc2cc3sccc3cc2s1']","['N#CCC#N', 'O=C1CCc2ccccc21', 'C', 'CCCCCCC1(CCCCCC)c2ccsc2-c2c1ccc1c3c(ccc21)C(CCCCCC)(CCCCCC)c1ccsc1-3']","['CCCCC(C)CC', 'Cc1cccs1', 'c1ccsc1', 'O=C1c2cscc2C(=O)c2cscc21', 'Cc1cc2cc3sccc3cc2s1', '.', 'N#CCC#N', 'O=C1CCc2ccccc21', 'C', 'CCCCCCC1(CCCCCC)c2ccsc2-c2c1ccc1c3c(ccc21)C(CCCCCC)(CCCCCC)c1ccsc1-3']","[0, 0, 0, 0, 0, 0, 0, 3, 5, 6, 29, 8, 1, 9, 10, 11, 139]"
PBDB-T,DTNIC8,-5.297714285714285,-3.4170000000000003,-5.91,-3.93,1.0,CB,_,25,9.03,9.03,0.96,72.84,"['CCCCC(C)CC', 'Cc1cccs1', 'c1ccsc1', 'O=C1c2cscc2C(=O)c2cscc21', 'Cc1cc2cc3sccc3cc2s1']","['N#CCC#N', 'O=C1CCc2ccccc21', 'C', 'CCCCC(CC)CC1(CC(CC)CCCC)c2ccsc2-c2c1ccc1c3c(ccc21)C(CC(CC)CCCC)(CC(CC)CCCC)c1ccsc1-3']","['CCCCC(C)CC', 'Cc1cccs1', 'c1ccsc1', 'O=C1c2cscc2C(=O)c2cscc21', 'Cc1cc2cc3sccc3cc2s1', '.', 'N#CCC#N', 'O=C1CCc2ccccc21', 'C', 'CCCCC(CC)CC1(CC(CC)CCCC)c2ccsc2-c2c1ccc1c3c(ccc21)C(CC(CC)CCCC)(CC(CC)CCCC)c1ccsc1-3']","[0, 0, 0, 0, 0, 0, 0, 3, 5, 6, 29, 8, 1, 9, 10, 11, 138]"
P3HT,DNIT-TT2T,-5.057777777777777,-2.989444444444445,-5.94,-3.75,1.0,o-DCB,_,130,1.25,1.25,0.88,43.47,"['CCCCCC', 'Cc1cccs1', 'Cc1cccs1', 'c1ccsc1']","['CCCCC(C)CC', 'CCCCCC', 'c1ccsc1', 'O=C1NC(=O)c2cccc3cccc1c23', 'c1cc2sccc2s1']","['CCCCCC', 'Cc1cccs1', 'Cc1cccs1', 'c1ccsc1', '.', 'CCCCC(C)CC', 'CCCCCC', 'c1ccsc1', 'O=C1NC(=O)c2cccc3cccc1c23', 'c1cc2sccc2s1']","[0, 0, 0, 0, 0, 0, 0, 12, 5, 5, 6, 1, 3, 12, 6, 80, 7]"
PTB7-Th,DICTF,-5.204782608695651,-3.5391891891891896,-5.67,-3.79,0.714,CF,_,100,7.63,7.63,0.85,55.0,"['O', 'CCCCC(C)CC', 'C=O', 'CCCCC(C)CC', 'Cc1scc2scc(F)c12', 'c1ccsc1', 'Cc1cc2cc3sccc3cc2s1']","['N#CCC#N', 'O=C1CCc2ccccc21', 'C', 'c1ccsc1', 'CCCCCCCCC1(CCCCCCCC)c2ccccc2-c2ccccc21']","['O', 'CCCCC(C)CC', 'C=O', 'CCCCC(C)CC', 'Cc1scc2scc(F)c12', 'c1ccsc1', 'Cc1cc2cc3sccc3cc2s1', '.', 'N#CCC#N', 'O=C1CCc2ccccc21', 'C', 'c1ccsc1', 'CCCCCCCCC1(CCCCCCCC)c2ccccc2-c2ccccc21']","[0, 0, 0, 0, 2, 3, 4, 3, 33, 6, 8, 1, 9, 10, 11, 6, 70]"
P1_BDT-TBT,PY1,-5.1,-3.48,-5.27,-4.0,0.5,CF,DIO,25,4.89,4.89,0.83,56.0,"['OS', 'CCCCCCCCCCCC', 'Cc1cc2cc3sccc3cc2s1', 'Cc1cccs1', 'c1ccsc1', 'c1ccc2nsnc2c1']","['CCCC', 'CC1CC(=O)NC(=O)C1C#N', 'CCCCCCCCCCCCCCCCC', 'C', 'CCCCCC', 'c1ccsc1', 'c1cc2nc3ccsc3c2s1']","['OS', 'CCCCCCCCCCCC', 'Cc1cc2cc3sccc3cc2s1', 'Cc1cccs1', 'c1ccsc1', 'c1ccc2nsnc2c1', '.', 'CCCC', 'CC1CC(=O)NC(=O)C1C#N', 'CCCCCCCCCCCCCCCCC', 'C', 'CCCCCC', 'c1ccsc1', 'c1cc2nc3ccsc3c2s1']","[0, 0, 0, 31, 25, 8, 5, 6, 34, 1, 101, 140, 108, 11, 12, 6, 141]"
PBDTTT-C-T,DC-IDT2F,-5.128,-3.268,-5.44,-3.88,2.0,o-DCB,_,25,3.08,3.08,0.96,50.8,"['CCCCC(CC)CC=O', 'CCCCC(C)CC', 'Cc1scc2sccc12', 'c1ccsc1', 'Cc1cc2cc3sccc3cc2s1']","['N#CCC#N', 'O=C1CCc2ccccc21', 'C', 'CCCCCC', 'c1ccoc1', 'c1ccc(C2(c3ccccc3)c3ccccc3-c3cc4c(cc32)-c2ccccc2C4(c2ccccc2)c2ccccc2)cc1']","['CCCCC(CC)CC=O', 'CCCCC(C)CC', 'Cc1scc2sccc12', 'c1ccsc1', 'Cc1cc2cc3sccc3cc2s1', '.', 'N#CCC#N', 'O=C1CCc2ccccc21', 'C', 'CCCCCC', 'c1ccoc1', 'c1ccc(C2(c3ccccc3)c3ccccc3-c3cc4c(cc32)-c2ccccc2C4(c2ccccc2)c2ccccc2)cc1']","[0, 0, 0, 0, 0, 85, 3, 84, 6, 8, 1, 9, 10, 11, 12, 45, 133]"
PTB7-Th,IM-IDT,-5.204782608695651,-3.5391891891891896,-5.44,-4.0,1.0,o-DCB,DPE,100,1.6,1.41,0.58,49.16,"['O', 'CCCCC(C)CC', 'C=O', 'CCCCC(C)CC', 'Cc1scc2scc(F)c12', 'c1ccsc1', 'Cc1cc2cc3sccc3cc2s1']","['N#CCC#N', 'CCCCCC', 'CCCCC(CC)CN1C(=O)Cc2ccccc21', 'c1ccc(C2(c3ccccc3)c3cc4c(cc3-c3sccc32)C(c2ccccc2)(c2ccccc2)c2ccsc2-4)cc1']","['O', 'CCCCC(C)CC', 'C=O', 'CCCCC(C)CC', 'Cc1scc2scc(F)c12', 'c1ccsc1', 'Cc1cc2cc3sccc3cc2s1', '.', 'N#CCC#N', 'CCCCCC', 'CCCCC(CC)CN1C(=O)Cc2ccccc21', 'c1ccc(C2(c3ccccc3)c3cc4c(cc3-c3sccc32)C(c2ccccc2)(c2ccccc2)c2ccsc2-4)cc1']","[0, 0, 0, 0, 0, 2, 3, 4, 3, 33, 6, 8, 1, 9, 12, 142, 36]"
PTB7-Th,TIM-IDT,-5.204782608695651,-3.5391891891891896,-5.36,-4.01,1.0,o-DCB,_,25,1.63,1.44,0.6,45.53,"['O', 'CCCCC(C)CC', 'C=O', 'CCCCC(C)CC', 'Cc1scc2scc(F)c12', 'c1ccsc1', 'Cc1cc2cc3sccc3cc2s1']","['N#CCC#N', 'CCCCCC', 'CCCCC(CC)CN1C(=O)Cc2sccc21', 'c1ccc(C2(c3ccccc3)c3cc4c(cc3-c3sccc32)C(c2ccccc2)(c2ccccc2)c2ccsc2-4)cc1']","['O', 'CCCCC(C)CC', 'C=O', 'CCCCC(C)CC', 'Cc1scc2scc(F)c12', 'c1ccsc1', 'Cc1cc2cc3sccc3cc2s1', '.', 'N#CCC#N', 'CCCCCC', 'CCCCC(CC)CN1C(=O)Cc2sccc21', 'c1ccc(C2(c3ccccc3)c3cc4c(cc3-c3sccc32)C(c2ccccc2)(c2ccccc2)c2ccsc2-4)cc1']","[0, 0, 0, 0, 0, 2, 3, 4, 3, 33, 6, 8, 1, 9, 12, 143, 36]"
PTB7-Th,COTIC-4F,-5.204782608695651,-3.5391891891891896,-5.26,-4.16,0.667,CB,CN,25,6.4,6.4,0.56,56.3,"['O', 'CCCCC(C)CC', 'C=O', 'CCCCC(C)CC', 'Cc1scc2scc(F)c12', 'c1ccsc1', 'Cc1cc2cc3sccc3cc2s1']","['CCCCC(C)CC', 'O', 'N#CCC#N', 'O=C1CCc2ccccc21', 'C', 'c1ccsc1', 'CCCCC(CC)CC1(CC(CC)CCCC)c2ccsc2-c2sccc21']","['O', 'CCCCC(C)CC', 'C=O', 'CCCCC(C)CC', 'Cc1scc2scc(F)c12', 'c1ccsc1', 'Cc1cc2cc3sccc3cc2s1', '.', 'CCCCC(C)CC', 'O', 'N#CCC#N', 'O=C1CCc2ccccc21', 'C', 'c1ccsc1', 'CCCCC(CC)CC1(CC(CC)CCCC)c2ccsc2-c2sccc21']","[0, 0, 2, 3, 4, 3, 33, 6, 8, 1, 3, 2, 9, 10, 11, 6, 144]"
PTB7-Th,SiOTIC-4F,-5.204782608695651,-3.5391891891891896,-5.28,-4.11,0.667,CF,CN,25,8.6,8.62,0.65,61.4,"['O', 'CCCCC(C)CC', 'C=O', 'CCCCC(C)CC', 'Cc1scc2scc(F)c12', 'c1ccsc1', 'Cc1cc2cc3sccc3cc2s1']","['CCCCC(C)CC', 'O', 'N#CCC#N', 'O=C1CCc2cc(F)c(F)cc21', 'C', 'c1ccsc1', 'CCCCC(CC)C[Si]1(CC(CC)CCCC)c2ccsc2-c2sccc21']","['O', 'CCCCC(C)CC', 'C=O', 'CCCCC(C)CC', 'Cc1scc2scc(F)c12', 'c1ccsc1', 'Cc1cc2cc3sccc3cc2s1', '.', 'CCCCC(C)CC', 'O', 'N#CCC#N', 'O=C1CCc2cc(F)c(F)cc21', 'C', 'c1ccsc1', 'CCCCC(CC)C[Si]1(CC(CC)CCCC)c2ccsc2-c2sccc21']","[0, 0, 2, 3, 4, 3, 33, 6, 8, 1, 3, 2, 9, 39, 11, 6, 145]"
P3HT,BTA100,-5.057777777777777,-2.989444444444445,-4.98,-2.81,1.0,CF,_,100,1.04,1.04,1.34,47.0,"['CCCCCC', 'Cc1cccs1', 'Cc1cccs1', 'c1ccsc1']","['CO', 'CC', 'O=C1CSC(=O)N1', 'CCCCCCCC', 'C', 'CCCCCC', 'c1ccc2nnnc2c1', 'c1ccc(C2(c3ccccc3)c3cc4c(cc3-c3sccc32)C(c2ccccc2)(c2ccccc2)c2ccsc2-4)cc1']","['CCCCCC', 'Cc1cccs1', 'Cc1cccs1', 'c1ccsc1', '.', 'CO', 'CC', 'O=C1CSC(=O)N1', 'CCCCCCCC', 'C', 'CCCCCC', 'c1ccc2nnnc2c1', 'c1ccc(C2(c3ccccc3)c3cc4c(cc3-c3sccc32)C(c2ccccc2)(c2ccccc2)c2ccsc2-4)cc1']","[0, 0, 0, 0, 12, 5, 5, 6, 1, 61, 21, 146, 20, 11, 12, 43, 36]"
P3HT,BTA101,-5.057777777777777,-2.989444444444445,-5.05,-2.99,1.0,CF,_,120,3.55,3.55,1.19,56.0,"['CCCCCC', 'Cc1cccs1', 'Cc1cccs1', 'c1ccsc1']","['CO', 'CC', 'O=C1CSC(=S)N1', 'CCCCCCCC', 'C', 'CCCCCC', 'c1ccc2nnnc2c1', 'c1ccc(C2(c3ccccc3)c3cc4c(cc3-c3sccc32)C(c2ccccc2)(c2ccccc2)c2ccsc2-4)cc1']","['CCCCCC', 'Cc1cccs1', 'Cc1cccs1', 'c1ccsc1', '.', 'CO', 'CC', 'O=C1CSC(=S)N1', 'CCCCCCCC', 'C', 'CCCCCC', 'c1ccc2nnnc2c1', 'c1ccc(C2(c3ccccc3)c3cc4c(cc3-c3sccc32)C(c2ccccc2)(c2ccccc2)c2ccsc2-4)cc1']","[0, 0, 0, 0, 12, 5, 5, 6, 1, 61, 21, 69, 20, 11, 12, 43, 36]"
P3HT,BTA103,-5.057777777777777,-2.989444444444445,-5.21,-3.18,0.5,CF,_,120,5.31,5.31,0.94,66.0,"['CCCCCC', 'Cc1cccs1', 'Cc1cccs1', 'c1ccsc1']","['CO', 'CCCCCCCC', 'CC', 'CCCCCC', 'N#CC(C#N)=c1nc(=O)/c(=C\\c2cccc3nnnc23)s1', 'c1ccc(C2(c3ccccc3)c3cc4c(cc3-c3sccc32)C(c2ccccc2)(c2ccccc2)c2ccsc2-4)cc1']","['CCCCCC', 'Cc1cccs1', 'Cc1cccs1', 'c1ccsc1', '.', 'CO', 'CCCCCCCC', 'CC', 'CCCCCC', 'N#CC(C#N)=c1nc(=O)/c(=C\\c2cccc3nnnc23)s1', 'c1ccc(C2(c3ccccc3)c3cc4c(cc3-c3sccc32)C(c2ccccc2)(c2ccccc2)c2ccsc2-4)cc1']","[0, 0, 0, 0, 0, 0, 12, 5, 5, 6, 1, 61, 20, 21, 12, 22, 36]"
PTB7-Th,6TIC,-5.204782608695651,-3.5391891891891896,-5.33,-3.885,0.667,CB,DIO,150,11.07,11.06,0.831,66.16,"['O', 'CCCCC(C)CC', 'C=O', 'CCCCC(C)CC', 'Cc1scc2scc(F)c12', 'c1ccsc1', 'Cc1cc2cc3sccc3cc2s1']","['N#CCC#N', 'O=C1CCc2ccccc21', 'C', 'CCCCCC', 'c1ccc(C2(c3ccccc3)c3c(sc4ccsc34)-c3sc4c5c(sc4c32)-c2sc3ccsc3c2C5(c2ccccc2)c2ccccc2)cc1']","['O', 'CCCCC(C)CC', 'C=O', 'CCCCC(C)CC', 'Cc1scc2scc(F)c12', 'c1ccsc1', 'Cc1cc2cc3sccc3cc2s1', '.', 'N#CCC#N', 'O=C1CCc2ccccc21', 'C', 'CCCCCC', 'c1ccc(C2(c3ccccc3)c3c(sc4ccsc34)-c3sc4c5c(sc4c32)-c2sc3ccsc3c2C5(c2ccccc2)c2ccccc2)cc1']","[0, 0, 0, 0, 2, 3, 4, 3, 33, 6, 8, 1, 9, 10, 11, 12, 13]"
PTB7-Th,COi8DFIC,-5.204782608695651,-3.5391891891891896,-5.5,-3.88,1.0,CB,DIO,25,12.16,12.11,0.68,68.2,"['O', 'CCCCC(C)CC', 'C=O', 'CCCCC(C)CC', 'Cc1scc2scc(F)c12', 'c1ccsc1', 'Cc1cc2cc3sccc3cc2s1']","['N#CCC#N', 'O=C1CCc2cc(F)c(F)cc21', 'C', 'CCCCCC', 'c1ccc(C2(c3ccccc3)Oc3c(sc4c5c(sc34)-c3sc4ccsc4c3C(c3ccccc3)(c3ccccc3)O5)-c3sc4ccsc4c32)cc1']","['O', 'CCCCC(C)CC', 'C=O', 'CCCCC(C)CC', 'Cc1scc2scc(F)c12', 'c1ccsc1', 'Cc1cc2cc3sccc3cc2s1', '.', 'N#CCC#N', 'O=C1CCc2cc(F)c(F)cc21', 'C', 'CCCCCC', 'c1ccc(C2(c3ccccc3)Oc3c(sc4c5c(sc34)-c3sc4ccsc4c3C(c3ccccc3)(c3ccccc3)O5)-c3sc4ccsc4c32)cc1']","[0, 0, 0, 0, 2, 3, 4, 3, 33, 6, 8, 1, 9, 39, 11, 12, 147]"
PTB7-Th,IDT-2BR1,-5.204782608695651,-3.5391891891891896,-5.37,-3.67,1.0,o-DCB:CF (4:1),CN,25,8.7,8.66,0.95,60.0,"['O', 'CCCCC(C)CC', 'C=O', 'CCCCC(C)CC', 'Cc1scc2scc(F)c12', 'c1ccsc1', 'Cc1cc2cc3sccc3cc2s1']","['CC', 'O=C1CSC(=S)N1', 'C', 'c1ccc2nsnc2c1', 'CCCCCCC1(CCCCCC)c2cc3c(cc2-c2sccc21)C(CCCCCC)(CCCCCC)c1ccsc1-3']","['O', 'CCCCC(C)CC', 'C=O', 'CCCCC(C)CC', 'Cc1scc2scc(F)c12', 'c1ccsc1', 'Cc1cc2cc3sccc3cc2s1', '.', 'CC', 'O=C1CSC(=S)N1', 'C', 'c1ccc2nsnc2c1', 'CCCCCCC1(CCCCCC)c2cc3c(cc2-c2sccc21)C(CCCCCC)(CCCCCC)c1ccsc1-3']","[0, 0, 0, 0, 2, 3, 4, 3, 33, 6, 8, 1, 21, 69, 11, 34, 28]"
PTB7-Th,ATT-2,-5.204782608695651,-3.5391891891891896,-5.5,-3.9,0.556,CB,CN,25,9.58,9.54,0.73,63.0,"['O', 'CCCCC(C)CC', 'C=O', 'CCCCC(C)CC', 'Cc1scc2scc(F)c12', 'c1ccsc1', 'Cc1cc2cc3sccc3cc2s1']","['O', 'CCCCCCCC', 'C=O', 'N#CCC#N', 'O=C1CCc2ccccc21', 'C', 'CCCCCC', 'c1cc2cscc2s1', 'c1ccc(C2(c3ccccc3)c3cc4c(cc3-c3sccc32)C(c2ccccc2)(c2ccccc2)c2ccsc2-4)cc1']","['O', 'CCCCC(C)CC', 'C=O', 'CCCCC(C)CC', 'Cc1scc2scc(F)c12', 'c1ccsc1', 'Cc1cc2cc3sccc3cc2s1', '.', 'O', 'CCCCCCCC', 'C=O', 'N#CCC#N', 'O=C1CCc2ccccc21', 'C', 'CCCCCC', 'c1cc2cscc2s1', 'c1ccc(C2(c3ccccc3)c3cc4c(cc3-c3sccc32)C(c2ccccc2)(c2ccccc2)c2ccsc2-4)cc1']","[2, 3, 4, 3, 33, 6, 8, 1, 2, 20, 4, 9, 10, 11, 12, 86, 36]"
PTB7-Th,T1,-5.204782608695651,-3.5391891891891896,-5.42,-3.91,0.556,CB,_,25,9.82,9.8,0.72,65.0,"['O', 'CCCCC(C)CC', 'C=O', 'CCCCC(C)CC', 'Cc1scc2scc(F)c12', 'c1ccsc1', 'Cc1cc2cc3sccc3cc2s1']","['O', 'CCCCC(C)CC', 'C=O', 'N#CCC#N', 'O=C1CCc2ccccc21', 'C', 'CCCCCC', 'Fc1csc2cscc12', 'c1ccc(C2(c3ccccc3)c3cc4c(cc3-c3sccc32)C(c2ccccc2)(c2ccccc2)c2ccsc2-4)cc1']","['O', 'CCCCC(C)CC', 'C=O', 'CCCCC(C)CC', 'Cc1scc2scc(F)c12', 'c1ccsc1', 'Cc1cc2cc3sccc3cc2s1', '.', 'O', 'CCCCC(C)CC', 'C=O', 'N#CCC#N', 'O=C1CCc2ccccc21', 'C', 'CCCCCC', 'Fc1csc2cscc12', 'c1ccc(C2(c3ccccc3)c3cc4c(cc3-c3sccc32)C(c2ccccc2)(c2ccccc2)c2ccsc2-4)cc1']","[2, 3, 4, 3, 33, 6, 8, 1, 2, 3, 4, 9, 10, 11, 12, 148, 36]"
PTB7-Th,T2,-5.204782608695651,-3.5391891891891896,-5.34,-3.96,0.556,CB,_,25,10.1,10.02,0.67,66.0,"['O', 'CCCCC(C)CC', 'C=O', 'CCCCC(C)CC', 'Cc1scc2scc(F)c12', 'c1ccsc1', 'Cc1cc2cc3sccc3cc2s1']","['O', 'CCCCC(C)CC', 'C=O', 'N#CCC#N', 'O=C1CCc2ccc(F)cc21', 'C', 'CCCCCC', 'Fc1csc2cscc12', 'c1ccc(C2(c3ccccc3)c3cc4c(cc3-c3sccc32)C(c2ccccc2)(c2ccccc2)c2ccsc2-4)cc1']","['O', 'CCCCC(C)CC', 'C=O', 'CCCCC(C)CC', 'Cc1scc2scc(F)c12', 'c1ccsc1', 'Cc1cc2cc3sccc3cc2s1', '.', 'O', 'CCCCC(C)CC', 'C=O', 'N#CCC#N', 'O=C1CCc2ccc(F)cc21', 'C', 'CCCCCC', 'Fc1csc2cscc12', 'c1ccc(C2(c3ccccc3)c3cc4c(cc3-c3sccc32)C(c2ccccc2)(c2ccccc2)c2ccsc2-4)cc1']","[2, 3, 4, 3, 33, 6, 8, 1, 2, 3, 4, 9, 60, 11, 12, 148, 36]"
PTB7-Th,T3,-5.204782608695651,-3.5391891891891896,-5.31,-4.0,0.556,CB,_,25,9.43,9.39,0.61,70.0,"['O', 'CCCCC(C)CC', 'C=O', 'CCCCC(C)CC', 'Cc1scc2scc(F)c12', 'c1ccsc1', 'Cc1cc2cc3sccc3cc2s1']","['O', 'CCCCC(C)CC', 'C=O', 'N#CCC#N', 'O=C1CCc2cc(F)c(F)cc21', 'C', 'CCCCCC', 'Fc1csc2cscc12', 'c1ccc(C2(c3ccccc3)c3cc4c(cc3-c3sccc32)C(c2ccccc2)(c2ccccc2)c2ccsc2-4)cc1']","['O', 'CCCCC(C)CC', 'C=O', 'CCCCC(C)CC', 'Cc1scc2scc(F)c12', 'c1ccsc1', 'Cc1cc2cc3sccc3cc2s1', '.', 'O', 'CCCCC(C)CC', 'C=O', 'N#CCC#N', 'O=C1CCc2cc(F)c(F)cc21', 'C', 'CCCCCC', 'Fc1csc2cscc12', 'c1ccc(C2(c3ccccc3)c3cc4c(cc3-c3sccc32)C(c2ccccc2)(c2ccccc2)c2ccsc2-4)cc1']","[2, 3, 4, 3, 33, 6, 8, 1, 2, 3, 4, 9, 39, 11, 12, 148, 36]"
PTB7-Th,ATT-1,-5.204782608695651,-3.5391891891891896,-5.5,-3.63,0.667,o-DCB,DIO,25,10.07,10.04,0.87,70.0,"['O', 'CCCCC(C)CC', 'C=O', 'CCCCC(C)CC', 'Cc1scc2scc(F)c12', 'c1ccsc1', 'Cc1cc2cc3sccc3cc2s1']","['O', 'CCCCCCCC', 'C=O', 'CC', 'CCCCCC', 'N#CC(C#N)=c1nc(=O)/c(=C\\c2scc3sccc23)s1', 'c1ccc(C2(c3ccccc3)c3cc4c(cc3-c3sccc32)C(c2ccccc2)(c2ccccc2)c2ccsc2-4)cc1']","['O', 'CCCCC(C)CC', 'C=O', 'CCCCC(C)CC', 'Cc1scc2scc(F)c12', 'c1ccsc1', 'Cc1cc2cc3sccc3cc2s1', '.', 'O', 'CCCCCCCC', 'C=O', 'CC', 'CCCCCC', 'N#CC(C#N)=c1nc(=O)/c(=C\\c2scc3sccc23)s1', 'c1ccc(C2(c3ccccc3)c3cc4c(cc3-c3sccc32)C(c2ccccc2)(c2ccccc2)c2ccsc2-4)cc1']","[0, 0, 2, 3, 4, 3, 33, 6, 8, 1, 2, 20, 4, 21, 12, 149, 36]"
PDBT-T1,IC-C6IDT-IC,-5.36,-3.43,-5.69,-3.91,1.0,CF,_,25,8.71,8.71,0.89,65.0,"['CCCCCCCC', 'CCCCC(C)CC', 'Cc1cccs1', 'c1ccsc1', 'O=C1c2cscc2C(=O)c2cscc21', 'Cc1cc2sc3cc4c(cc3c2s1)sc1ccsc14']","['N#CCC#N', 'O=C1CCc2ccccc21', 'C', 'CCCCCCC1(CCCCCC)c2cc3c(cc2-c2sccc21)C(CCCCCC)(CCCCCC)c1ccsc1-3']","['CCCCCCCC', 'CCCCC(C)CC', 'Cc1cccs1', 'c1ccsc1', 'O=C1c2cscc2C(=O)c2cscc21', 'Cc1cc2sc3cc4c(cc3c2s1)sc1ccsc14', '.', 'N#CCC#N', 'O=C1CCc2ccccc21', 'C', 'CCCCCCC1(CCCCCC)c2cc3c(cc2-c2sccc21)C(CCCCCC)(CCCCCC)c1ccsc1-3']","[0, 0, 0, 0, 0, 0, 20, 3, 5, 6, 29, 30, 1, 9, 10, 11, 28]"
PBDTT-6ttTPD,IDIC,-5.36,-3.51,-5.706,-4.002666666666667,1.0,CF,DIO,25,8.58,8.58,0.822,65.5,"['CCCCCCCCCCCCCCCCC', 'CCCCCCCCC', 'CCCCCC', 'Cc1cc2sccc2s1', 'c1ccsc1', 'O=C1NC(=O)c2cscc21', 'c1cc2sccc2s1', 'Cc1cc2cc3sccc3cc2s1']","['N#CCC#N', 'O=C1CCc2ccccc21', 'C', 'CCCCCCC1(CCCCCC)c2cc3c(cc2-c2sccc21)C(CCCCCC)(CCCCCC)c1ccsc1-3']","['CCCCCCCCCCCCCCCCC', 'CCCCCCCCC', 'CCCCCC', 'Cc1cc2sccc2s1', 'c1ccsc1', 'O=C1NC(=O)c2cscc21', 'c1cc2sccc2s1', 'Cc1cc2cc3sccc3cc2s1', '.', 'N#CCC#N', 'O=C1CCc2ccccc21', 'C', 'CCCCCCC1(CCCCCC)c2cc3c(cc2-c2sccc21)C(CCCCCC)(CCCCCC)c1ccsc1-3']","[0, 0, 0, 0, 108, 77, 12, 150, 6, 151, 7, 8, 1, 9, 10, 11, 28]"
PMOT16,IDIC,-5.52,-3.66,-5.706,-4.002666666666667,1.0,CF,DIO,25,10.04,10.04,0.925,67.3,"['CO', 'CCCCCCCCC(C)CCCCCC', 'CCCCC(C)CC', 'CCCCCC', 'Cc1cc2sccc2s1', 'c1ccsc1', 'O=C1NC(=O)c2cscc21', 'c1cc2sccc2s1', 'Cc1cc2cc3sccc3cc2s1']","['N#CCC#N', 'O=C1CCc2ccccc21', 'C', 'CCCCCCC1(CCCCCC)c2cc3c(cc2-c2sccc21)C(CCCCCC)(CCCCCC)c1ccsc1-3']","['CO', 'CCCCCCCCC(C)CCCCCC', 'CCCCC(C)CC', 'CCCCCC', 'Cc1cc2sccc2s1', 'c1ccsc1', 'O=C1NC(=O)c2cscc21', 'c1cc2sccc2s1', 'Cc1cc2cc3sccc3cc2s1', '.', 'N#CCC#N', 'O=C1CCc2ccccc21', 'C', 'CCCCCCC1(CCCCCC)c2cc3c(cc2-c2sccc21)C(CCCCCC)(CCCCCC)c1ccsc1-3']","[0, 0, 0, 61, 16, 3, 12, 150, 6, 151, 7, 8, 1, 9, 10, 11, 28]"
PTZP,IDIC,-5.41,-3.4,-5.706,-4.002666666666667,0.667,CB,DIO,25,11.8,11.81,0.9,73.3,"['CCCCCCC(C)CCCC', 'CCCCC(C)CC', 'S', 'Cc1cccs1', 'c1ccsc1', 'c1ccsc1', 'c1nc2scnc2s1', 'Cc1cc2cc3sccc3cc2s1']","['N#CCC#N', 'O=C1CCc2ccccc21', 'C', 'CCCCCCC1(CCCCCC)c2cc3c(cc2-c2sccc21)C(CCCCCC)(CCCCCC)c1ccsc1-3']","['CCCCCCC(C)CCCC', 'CCCCC(C)CC', 'S', 'Cc1cccs1', 'c1ccsc1', 'c1ccsc1', 'c1nc2scnc2s1', 'Cc1cc2cc3sccc3cc2s1', '.', 'N#CCC#N', 'O=C1CCc2ccccc21', 'C', 'CCCCCCC1(CCCCCC)c2cc3c(cc2-c2sccc21)C(CCCCCC)(CCCCCC)c1ccsc1-3']","[0, 0, 0, 0, 32, 3, 24, 5, 6, 6, 124, 8, 1, 9, 10, 11, 28]"