Donor,Acceptor,HOMO_D_eV,LUMO_D_eV,HOMO_A_eV,LUMO_A_eV,D_A_ratio_m_m,solvent,solvent_additive,annealing_temperature,PCE_percent,calc_PCE_percent,Voc_V,FF_percent,Donor_BRICS,Acceptor_BRICS,DA_pair_BRICS,DA_tokenized_BRICS
PBDB-T,DICTiF,-5.297714285714285,-3.4170000000000003,-5.55,-3.62,0.714,CF,DPE,80.0,6.97,7.13,0.98,65.0,"['[8*]CC(CC)CCCC', '[14*]c1ccc(C)s1', '[14*]c1ccc([14*])s1', '[14*]c1sc([14*])c2c1C(=O)c1c([14*])sc([14*])c1C2=O', '[14*]c1cc2c([16*])c3sc(C)cc3c([16*])c2s1']","['[7*]C(C#N)C#N', '[7*]C1C(=O)c2ccccc2C1[7*]', '[7*]C[8*]', '[14*]c1ccc([14*])s1', '[16*]c1ccc2c(c1)C(CC(CC)CCCC)(CC(CC)CCCC)c1cc([16*])ccc1-2']","['[8*]CC(CC)CCCC', '[14*]c1ccc(C)s1', '[14*]c1ccc([14*])s1', '[14*]c1sc([14*])c2c1C(=O)c1c([14*])sc([14*])c1C2=O', '[14*]c1cc2c([16*])c3sc(C)cc3c([16*])c2s1', '.', '[7*]C(C#N)C#N', '[7*]C1C(=O)c2ccccc2C1[7*]', '[7*]C[8*]', '[14*]c1ccc([14*])s1', '[16*]c1ccc2c(c1)C(CC(CC)CCCC)(CC(CC)CCCC)c1cc([16*])ccc1-2']","[0, 0, 0, 0, 0, 0, 5, 6, 7, 30, 9, 1, 10, 11, 12, 7, 187]"
PBDB-T,DCF-2HT,-5.297714285714285,-3.4170000000000003,-5.67,-3.72,0.714,CF,PN,25.0,5.71,5.71,1.02,49.5,"['[8*]CC(CC)CCCC', '[14*]c1ccc(C)s1', '[14*]c1ccc([14*])s1', '[14*]c1sc([14*])c2c1C(=O)c1c([14*])sc([14*])c1C2=O', '[14*]c1cc2c([16*])c3sc(C)cc3c([16*])c2s1']","['[7*]C(C#N)C#N', '[7*]C1C(=O)c2ccccc2C1[7*]', '[7*]C[8*]', '[8*]CCCCCC', '[14*]c1cc([16*])c([14*])s1', '[16*]c1ccc2c(c1)C(CCCCCCCC)(CCCCCCCC)c1cc([16*])ccc1-2']","['[8*]CC(CC)CCCC', '[14*]c1ccc(C)s1', '[14*]c1ccc([14*])s1', '[14*]c1sc([14*])c2c1C(=O)c1c([14*])sc([14*])c1C2=O', '[14*]c1cc2c([16*])c3sc(C)cc3c([16*])c2s1', '.', '[7*]C(C#N)C#N', '[7*]C1C(=O)c2ccccc2C1[7*]', '[7*]C[8*]', '[8*]CCCCCC', '[14*]c1cc([16*])c([14*])s1', '[16*]c1ccc2c(c1)C(CCCCCCCC)(CCCCCCCC)c1cc([16*])ccc1-2']","[0, 0, 0, 0, 0, 5, 6, 7, 30, 9, 1, 10, 11, 12, 13, 34, 78]"
PTB7-Th,DCF-2HT,-5.204782608695651,-3.5391891891891896,-5.67,-3.72,0.714,CF,PN,25.0,4.83,4.78,0.96,40.04,"['[3*]O[3*]', '[4*]CC(CC)CCCC', '[1*]C([6*])=O', '[8*]CC(CC)CCCC', '[14*]c1sc2c([14*])sc(C)c2c1F', '[14*]c1ccc([14*])s1', '[14*]c1cc2c([16*])c3sc(C)cc3c([16*])c2s1']","['[7*]C(C#N)C#N', '[7*]C1C(=O)c2ccccc2C1[7*]', '[7*]C[8*]', '[8*]CCCCCC', '[14*]c1cc([16*])c([14*])s1', '[16*]c1ccc2c(c1)C(CCCCCCCC)(CCCCCCCC)c1cc([16*])ccc1-2']","['[3*]O[3*]', '[4*]CC(CC)CCCC', '[1*]C([6*])=O', '[8*]CC(CC)CCCC', '[14*]c1sc2c([14*])sc(C)c2c1F', '[14*]c1ccc([14*])s1', '[14*]c1cc2c([16*])c3sc(C)cc3c([16*])c2s1', '.', '[7*]C(C#N)C#N', '[7*]C1C(=O)c2ccccc2C1[7*]', '[7*]C[8*]', '[8*]CCCCCC', '[14*]c1cc([16*])c([14*])s1', '[16*]c1ccc2c(c1)C(CCCCCCCC)(CCCCCCCC)c1cc([16*])ccc1-2']","[0, 0, 0, 2, 3, 4, 5, 35, 7, 9, 1, 10, 11, 12, 13, 34, 78]"
FTAZ,ITIC1,-5.43,-3.3200000000000003,-5.48,-3.85,0.769,CF,_,25.0,8.54,8.54,0.921,56.4,"['[4*]CC(CCCC)CCCCCC', '[11*]S[11*]', '[14*]c1cc2c([16*])c3sc(C)cc3c([16*])c2s1', '[14*]c1ccc(C)s1', '[14*]c1ccc([14*])s1', '[11*]Sn1nc2c([16*])c(F)c(F)c([16*])c2n1']","['[7*]C(C#N)C#N', '[7*]C1C(=O)c2ccccc2C1[7*]', '[7*]C[8*]', '[8*]CCCCCC', '[14*]c1cc2c(s1)-c1sc3cc4c5c(sc4cc3c1C2(c1ccc([16*])cc1)c1ccc([16*])cc1)-c1sc([14*])cc1C5(c1ccc([16*])cc1)c1ccc([16*])cc1']","['[4*]CC(CCCC)CCCCCC', '[11*]S[11*]', '[14*]c1cc2c([16*])c3sc(C)cc3c([16*])c2s1', '[14*]c1ccc(C)s1', '[14*]c1ccc([14*])s1', '[11*]Sn1nc2c([16*])c(F)c(F)c([16*])c2n1', '.', '[7*]C(C#N)C#N', '[7*]C1C(=O)c2ccccc2C1[7*]', '[7*]C[8*]', '[8*]CCCCCC', '[14*]c1cc2c(s1)-c1sc3cc4c5c(sc4cc3c1C2(c1ccc([16*])cc1)c1ccc([16*])cc1)-c1sc([14*])cc1C5(c1ccc([16*])cc1)c1ccc([16*])cc1']","[0, 0, 0, 0, 0, 33, 25, 9, 6, 7, 64, 1, 10, 11, 12, 13, 65]"
PTB7-Th,BT-IC,-5.204782608695651,-3.5391891891891896,-5.3775,-3.8575,0.667,CB:CF (9:1),_,150.0,8.3,8.45,0.81,59.6,"['[3*]O[3*]', '[4*]CC(CC)CCCC', '[1*]C([6*])=O', '[8*]CC(CC)CCCC', '[14*]c1sc2c([14*])sc(C)c2c1F', '[14*]c1ccc([14*])s1', '[14*]c1cc2c([16*])c3sc(C)cc3c([16*])c2s1']","['[4*]CC(CC)CCCC', '[3*]O[3*]', '[7*]C(C#N)C#N', '[7*]C1C(=O)c2ccccc2C1[7*]', '[7*]C[8*]', '[8*]CCCCCC', '[14*]c1cc2c(s1)-c1sc3c([16*])c4c5c(sc4c([16*])c3c1C2(c1ccc([16*])cc1)c1ccc([16*])cc1)-c1sc([14*])cc1C5(c1ccc([16*])cc1)c1ccc([16*])cc1']","['[3*]O[3*]', '[4*]CC(CC)CCCC', '[1*]C([6*])=O', '[8*]CC(CC)CCCC', '[14*]c1sc2c([14*])sc(C)c2c1F', '[14*]c1ccc([14*])s1', '[14*]c1cc2c([16*])c3sc(C)cc3c([16*])c2s1', '.', '[4*]CC(CC)CCCC', '[3*]O[3*]', '[7*]C(C#N)C#N', '[7*]C1C(=O)c2ccccc2C1[7*]', '[7*]C[8*]', '[8*]CCCCCC', '[14*]c1cc2c(s1)-c1sc3c([16*])c4c5c(sc4c([16*])c3c1C2(c1ccc([16*])cc1)c1ccc([16*])cc1)-c1sc([14*])cc1C5(c1ccc([16*])cc1)c1ccc([16*])cc1']","[0, 0, 2, 3, 4, 5, 35, 7, 9, 1, 3, 2, 10, 11, 12, 13, 28]"
PTB7-Th,BT-CIC,-5.204782608695651,-3.5391891891891896,-5.32,-3.85,0.667,CB:CF (9:1),_,150.0,11.2,11.18,0.7,71.0,"['[3*]O[3*]', '[4*]CC(CC)CCCC', '[1*]C([6*])=O', '[8*]CC(CC)CCCC', '[14*]c1sc2c([14*])sc(C)c2c1F', '[14*]c1ccc([14*])s1', '[14*]c1cc2c([16*])c3sc(C)cc3c([16*])c2s1']","['[4*]CC(CC)CCCC', '[3*]O[3*]', '[7*]C(C#N)C#N', '[7*]C1C(=O)c2cc(Cl)c(O)cc2C1[7*]', '[7*]C1C(=O)c2cc(Cl)c(Cl)cc2C1[7*]', '[7*]C[8*]', '[8*]CCCCCC', '[14*]c1cc2c(s1)-c1sc3c([16*])c4c5c(sc4c([16*])c3c1C2(c1ccc([16*])cc1)c1ccc([16*])cc1)-c1sc([14*])cc1C5(c1ccc([16*])cc1)c1ccc([16*])cc1']","['[3*]O[3*]', '[4*]CC(CC)CCCC', '[1*]C([6*])=O', '[8*]CC(CC)CCCC', '[14*]c1sc2c([14*])sc(C)c2c1F', '[14*]c1ccc([14*])s1', '[14*]c1cc2c([16*])c3sc(C)cc3c([16*])c2s1', '.', '[4*]CC(CC)CCCC', '[3*]O[3*]', '[7*]C(C#N)C#N', '[7*]C1C(=O)c2cc(Cl)c(O)cc2C1[7*]', '[7*]C1C(=O)c2cc(Cl)c(Cl)cc2C1[7*]', '[7*]C[8*]', '[8*]CCCCCC', '[14*]c1cc2c(s1)-c1sc3c([16*])c4c5c(sc4c([16*])c3c1C2(c1ccc([16*])cc1)c1ccc([16*])cc1)-c1sc([14*])cc1C5(c1ccc([16*])cc1)c1ccc([16*])cc1']","[0, 2, 3, 4, 5, 35, 7, 9, 1, 3, 2, 10, 189, 41, 12, 13, 28]"
FTAZ,IDIC1,-5.43,-3.3200000000000003,-5.51,-3.81,0.667,CF,_,25.0,7.13,7.13,0.896,58.5,"['[4*]CC(CCCC)CCCCCC', '[11*]S[11*]', '[14*]c1cc2c([16*])c3sc(C)cc3c([16*])c2s1', '[14*]c1ccc(C)s1', '[14*]c1ccc([14*])s1', '[11*]Sn1nc2c([16*])c(F)c(F)c([16*])c2n1']","['[7*]C(C#N)C#N', '[7*]C1C(=O)c2ccccc2C1[7*]', '[7*]C[8*]', '[8*]CCCCCC', '[14*]c1cc2c(s1)-c1cc3c(cc1C2(c1ccc([16*])cc1)c1ccc([16*])cc1)-c1sc([14*])cc1C3(c1ccc([16*])cc1)c1ccc([16*])cc1']","['[4*]CC(CCCC)CCCCCC', '[11*]S[11*]', '[14*]c1cc2c([16*])c3sc(C)cc3c([16*])c2s1', '[14*]c1ccc(C)s1', '[14*]c1ccc([14*])s1', '[11*]Sn1nc2c([16*])c(F)c(F)c([16*])c2n1', '.', '[7*]C(C#N)C#N', '[7*]C1C(=O)c2ccccc2C1[7*]', '[7*]C[8*]', '[8*]CCCCCC', '[14*]c1cc2c(s1)-c1cc3c(cc1C2(c1ccc([16*])cc1)c1ccc([16*])cc1)-c1sc([14*])cc1C3(c1ccc([16*])cc1)c1ccc([16*])cc1']","[0, 0, 0, 0, 0, 33, 25, 9, 6, 7, 64, 1, 10, 11, 12, 13, 38]"
PBDB-T,NTIC-Me,-5.297714285714285,-3.4170000000000003,-5.53,-3.73,1.25,CF,_,25.0,8.3,8.88,0.963,66.2,"['[8*]CC(CC)CCCC', '[14*]c1ccc(C)s1', '[14*]c1ccc([14*])s1', '[14*]c1sc([14*])c2c1C(=O)c1c([14*])sc([14*])c1C2=O', '[14*]c1cc2c([16*])c3sc(C)cc3c([16*])c2s1']","['[7*]C(C#N)C#N', '[7*]C1C(=O)c2ccc(C)cc2C1[7*]', '[7*]C[8*]', '[8*]CCCCCC', '[14*]c1cc2c(s1)-c1c(ccc3c4c(ccc13)C(c1ccc([16*])cc1)(c1ccc([16*])cc1)c1cc([14*])sc1-4)C2(c1ccc([16*])cc1)c1ccc([16*])cc1']","['[8*]CC(CC)CCCC', '[14*]c1ccc(C)s1', '[14*]c1ccc([14*])s1', '[14*]c1sc([14*])c2c1C(=O)c1c([14*])sc([14*])c1C2=O', '[14*]c1cc2c([16*])c3sc(C)cc3c([16*])c2s1', '.', '[7*]C(C#N)C#N', '[7*]C1C(=O)c2ccc(C)cc2C1[7*]', '[7*]C[8*]', '[8*]CCCCCC', '[14*]c1cc2c(s1)-c1c(ccc3c4c(ccc13)C(c1ccc([16*])cc1)(c1ccc([16*])cc1)c1cc([14*])sc1-4)C2(c1ccc([16*])cc1)c1ccc([16*])cc1']","[0, 0, 0, 0, 0, 0, 5, 6, 7, 30, 9, 1, 10, 16, 12, 13, 80]"
PBDB-T,NTIC-OMe,-5.297714285714285,-3.4170000000000003,-5.53,-3.7,1.25,CF,_,25.0,8.61,8.61,0.965,66.0,"['[8*]CC(CC)CCCC', '[14*]c1ccc(C)s1', '[14*]c1ccc([14*])s1', '[14*]c1sc([14*])c2c1C(=O)c1c([14*])sc([14*])c1C2=O', '[14*]c1cc2c([16*])c3sc(C)cc3c([16*])c2s1']","['[3*]OC', '[7*]C(C#N)C#N', '[7*]C1C(=O)c2ccc([16*])cc2C1[7*]', '[7*]C[8*]', '[8*]CCCCCC', '[14*]c1cc2c(s1)-c1c(ccc3c4c(ccc13)C(c1ccc([16*])cc1)(c1ccc([16*])cc1)c1cc([14*])sc1-4)C2(c1ccc([16*])cc1)c1ccc([16*])cc1']","['[8*]CC(CC)CCCC', '[14*]c1ccc(C)s1', '[14*]c1ccc([14*])s1', '[14*]c1sc([14*])c2c1C(=O)c1c([14*])sc([14*])c1C2=O', '[14*]c1cc2c([16*])c3sc(C)cc3c([16*])c2s1', '.', '[3*]OC', '[7*]C(C#N)C#N', '[7*]C1C(=O)c2ccc([16*])cc2C1[7*]', '[7*]C[8*]', '[8*]CCCCCC', '[14*]c1cc2c(s1)-c1c(ccc3c4c(ccc13)C(c1ccc([16*])cc1)(c1ccc([16*])cc1)c1cc([14*])sc1-4)C2(c1ccc([16*])cc1)c1ccc([16*])cc1']","[0, 0, 0, 0, 0, 5, 6, 7, 30, 9, 1, 69, 10, 70, 12, 13, 80]"
PBDB-T,NTIC-F,-5.297714285714285,-3.4170000000000003,-5.52,-3.77,1.25,CF,_,25.0,8.1,8.1,0.812,66.3,"['[8*]CC(CC)CCCC', '[14*]c1ccc(C)s1', '[14*]c1ccc([14*])s1', '[14*]c1sc([14*])c2c1C(=O)c1c([14*])sc([14*])c1C2=O', '[14*]c1cc2c([16*])c3sc(C)cc3c([16*])c2s1']","['[7*]C(C#N)C#N', '[7*]C1C(=O)c2cc(F)ccc2C1[7*]', '[7*]C[8*]', '[8*]CCCCCC', '[14*]c1cc2c(s1)-c1c(ccc3c4c(ccc13)C(c1ccc([16*])cc1)(c1ccc([16*])cc1)c1cc([14*])sc1-4)C2(c1ccc([16*])cc1)c1ccc([16*])cc1']","['[8*]CC(CC)CCCC', '[14*]c1ccc(C)s1', '[14*]c1ccc([14*])s1', '[14*]c1sc([14*])c2c1C(=O)c1c([14*])sc([14*])c1C2=O', '[14*]c1cc2c([16*])c3sc(C)cc3c([16*])c2s1', '.', '[7*]C(C#N)C#N', '[7*]C1C(=O)c2cc(F)ccc2C1[7*]', '[7*]C[8*]', '[8*]CCCCCC', '[14*]c1cc2c(s1)-c1c(ccc3c4c(ccc13)C(c1ccc([16*])cc1)(c1ccc([16*])cc1)c1cc([14*])sc1-4)C2(c1ccc([16*])cc1)c1ccc([16*])cc1']","[0, 0, 0, 0, 0, 0, 5, 6, 7, 30, 9, 1, 10, 68, 12, 13, 80]"
PffBT4T-2OD,FBR,-5.32,-3.695,-5.786666666666666,-3.673333333333333,0.714,o-DCB:CB (1:1),_,25.0,7.04,7.0,1.11,50.0,"['[8*]CC(CCCCCCCC)CCCCCCCCCC', '[14*]c1ccc(C)s1', '[14*]c1cc([16*])c(C)s1', '[14*]c1ccc([14*])s1', '[14*]c1cc([16*])c([14*])s1', '[16*]c1c(F)c(F)c([16*])c2nsnc12']","['[8*]CC', '[7*]C1SC(=S)N([10*])C1=O', '[7*]C[8*]', '[16*]c1ccc([16*])c2nsnc12', '[16*]c1ccc2c(c1)C(CCCCCCCC)(CCCCCCCC)c1cc([16*])ccc1-2']","['[8*]CC(CCCCCCCC)CCCCCCCCCC', '[14*]c1ccc(C)s1', '[14*]c1cc([16*])c(C)s1', '[14*]c1ccc([14*])s1', '[14*]c1cc([16*])c([14*])s1', '[16*]c1c(F)c(F)c([16*])c2nsnc12', '.', '[8*]CC', '[7*]C1SC(=S)N([10*])C1=O', '[7*]C[8*]', '[16*]c1ccc([16*])c2nsnc12', '[16*]c1ccc2c(c1)C(CCCCCCCC)(CCCCCCCC)c1cc([16*])ccc1-2']","[0, 0, 0, 0, 0, 181, 6, 57, 7, 34, 59, 1, 22, 76, 12, 127, 78]"
PBT1-C,IT-4F,-5.449999999999999,-3.41,-5.66875,-4.060416666666667,1.0,CB,DIO,25.0,10.9,10.97,0.79,70.5,"['[4*]CC(CCCC)CCCCCC', '[8*]CC(CC)CCCC', '[8*]CC(CCCCCCCC)CCCCCCCCCC', '[11*]S[11*]', '[14*]c1ccc(C)s1', '[14*]c1ccc([14*])s1', '[14*]c1sc([14*])c2c1C(=O)c1c([14*])sc([14*])c1C2=O', '[16*]c1ccc([16*])cc1', '[14*]c1cc2c([16*])c3sc(C)cc3c([16*])c2s1']","['[7*]C(C#N)C#N', '[7*]C1C(=O)c2cc(F)c(F)cc2C1[7*]', '[7*]C[8*]', '[8*]CCCCCC', '[14*]c1cc2sc3c(c2s1)C(c1ccc([16*])cc1)(c1ccc([16*])cc1)c1cc2c(cc1-3)C(c1ccc([16*])cc1)(c1ccc([16*])cc1)c1c-2sc2cc([14*])sc12']","['[4*]CC(CCCC)CCCCCC', '[8*]CC(CC)CCCC', '[8*]CC(CCCCCCCC)CCCCCCCCCC', '[11*]S[11*]', '[14*]c1ccc(C)s1', '[14*]c1ccc([14*])s1', '[14*]c1sc([14*])c2c1C(=O)c1c([14*])sc([14*])c1C2=O', '[16*]c1ccc([16*])cc1', '[14*]c1cc2c([16*])c3sc(C)cc3c([16*])c2s1', '.', '[7*]C(C#N)C#N', '[7*]C1C(=O)c2cc(F)c(F)cc2C1[7*]', '[7*]C[8*]', '[8*]CCCCCC', '[14*]c1cc2sc3c(c2s1)C(c1ccc([16*])cc1)(c1ccc([16*])cc1)c1cc2c(cc1-3)C(c1ccc([16*])cc1)(c1ccc([16*])cc1)c1c-2sc2cc([14*])sc12']","[0, 0, 33, 5, 181, 25, 6, 7, 30, 89, 9, 1, 10, 42, 12, 13, 15]"
PBT1-C-2Cl,IT-4F,-5.59,-3.53,-5.66875,-4.060416666666667,1.0,CB,DIO,25.0,12.7,12.75,0.85,76.0,"['[8*]CC(CC)CCCC', '[8*]CC(CCCC)CCCCCC', '[14*]c1cc(Cl)c(C)s1', '[14*]c1cc(Cl)c([14*])s1', '[14*]c1sc([14*])c2c1C(=O)c1c([14*])sc([14*])c1C2=O', '[16*]c1ccc([16*])cc1', '[14*]c1cc2c([16*])c3sc(C)cc3c([16*])c2s1']","['[7*]C(C#N)C#N', '[7*]C1C(=O)c2cc(F)c(F)cc2C1[7*]', '[7*]C[8*]', '[8*]CCCCCC', '[14*]c1cc2sc3c(c2s1)C(c1ccc([16*])cc1)(c1ccc([16*])cc1)c1cc2c(cc1-3)C(c1ccc([16*])cc1)(c1ccc([16*])cc1)c1c-2sc2cc([14*])sc12']","['[8*]CC(CC)CCCC', '[8*]CC(CCCC)CCCCCC', '[14*]c1cc(Cl)c(C)s1', '[14*]c1cc(Cl)c([14*])s1', '[14*]c1sc([14*])c2c1C(=O)c1c([14*])sc([14*])c1C2=O', '[16*]c1ccc([16*])cc1', '[14*]c1cc2c([16*])c3sc(C)cc3c([16*])c2s1', '.', '[7*]C(C#N)C#N', '[7*]C1C(=O)c2cc(F)c(F)cc2C1[7*]', '[7*]C[8*]', '[8*]CCCCCC', '[14*]c1cc2sc3c(c2s1)C(c1ccc([16*])cc1)(c1ccc([16*])cc1)c1cc2c(cc1-3)C(c1ccc([16*])cc1)(c1ccc([16*])cc1)c1c-2sc2cc([14*])sc12']","[0, 0, 0, 0, 5, 190, 191, 192, 30, 89, 9, 1, 10, 42, 12, 13, 15]"
J71,IT-IC,-5.353333333333333,-3.4318181818181825,-5.58,-3.88,0.833,CF,_,25.0,9.3,9.04,0.96,63.6,"['[8*]CC(CCCCCC)CCCCCCCC', '[14*]c1ccc(C)s1', '[14*]c1ccc([Si](CCC)(CCC)CCC)s1', '[14*]c1ccc([14*])s1', '[9*]n1nc2c([16*])c(F)c(F)c([16*])c2n1', '[14*]c1cc2c([16*])c3sc(C)cc3c([16*])c2s1']","['[7*]C(C#N)C#N', '[7*]C1C(=O)c2ccccc2C1[7*]', '[7*]C[8*]', '[8*]CCCCCC', '[14*]c1cc2sc3c(c2s1)C(c1ccc([16*])cc1)(c1ccc([16*])cc1)c1cc2c(cc1-3)C(c1ccc([16*])cc1)(c1ccc([16*])cc1)c1c-2sc2cc([14*])sc12']","['[8*]CC(CCCCCC)CCCCCCCC', '[14*]c1ccc(C)s1', '[14*]c1ccc([Si](CCC)(CCC)CCC)s1', '[14*]c1ccc([14*])s1', '[9*]n1nc2c([16*])c(F)c(F)c([16*])c2n1', '[14*]c1cc2c([16*])c3sc(C)cc3c([16*])c2s1', '.', '[7*]C(C#N)C#N', '[7*]C1C(=O)c2ccccc2C1[7*]', '[7*]C[8*]', '[8*]CCCCCC', '[14*]c1cc2sc3c(c2s1)C(c1ccc([16*])cc1)(c1ccc([16*])cc1)c1cc2c(cc1-3)C(c1ccc([16*])cc1)(c1ccc([16*])cc1)c1c-2sc2cc([14*])sc12']","[0, 0, 0, 0, 0, 17, 6, 18, 7, 19, 9, 1, 10, 11, 12, 13, 15]"
PBDB-T-2F,IT-4Cl,-5.47,-3.67,-5.75,-4.09,1.0,CF,_,100.0,12.67,12.67,0.78,73.0,"['[8*]CC(CC)CCCC', '[14*]c1ccc(C)s1', '[14*]c1cc(F)c([14*])s1', '[14*]c1sc([14*])c2c1C(=O)c1c([14*])sc([14*])c1C2=O', '[14*]c1ccc([14*])s1', '[14*]c1cc2c([16*])c3sc(C)cc3c([16*])c2s1']","['[7*]C(C#N)C#N', '[7*]C1C(=O)c2cc(Cl)c(Cl)cc2C1[7*]', '[7*]C[8*]', '[8*]CCCCCC', '[14*]c1cc2sc3c(c2s1)C(c1ccc([16*])cc1)(c1ccc([16*])cc1)c1cc2c(cc1-3)C(c1ccc([16*])cc1)(c1ccc([16*])cc1)c1c-2sc2cc([14*])sc12']","['[8*]CC(CC)CCCC', '[14*]c1ccc(C)s1', '[14*]c1cc(F)c([14*])s1', '[14*]c1sc([14*])c2c1C(=O)c1c([14*])sc([14*])c1C2=O', '[14*]c1ccc([14*])s1', '[14*]c1cc2c([16*])c3sc(C)cc3c([16*])c2s1', '.', '[7*]C(C#N)C#N', '[7*]C1C(=O)c2cc(Cl)c(Cl)cc2C1[7*]', '[7*]C[8*]', '[8*]CCCCCC', '[14*]c1cc2sc3c(c2s1)C(c1ccc([16*])cc1)(c1ccc([16*])cc1)c1cc2c(cc1-3)C(c1ccc([16*])cc1)(c1ccc([16*])cc1)c1c-2sc2cc([14*])sc12']","[0, 0, 0, 0, 0, 5, 6, 24, 30, 7, 9, 1, 10, 41, 12, 13, 15]"
PBDB-T-2Cl,IT-4F,-5.51,-3.71,-5.66875,-4.060416666666667,1.0,CB,_,100.0,14.29,14.29,0.89,78.0,"['[8*]CC(CC)CCCC', '[14*]c1ccc(C)s1', '[14*]c1cc(Cl)c([14*])s1', '[14*]c1sc([14*])c2c1C(=O)c1c([14*])sc([14*])c1C2=O', '[14*]c1ccc([14*])s1', '[14*]c1cc2c([16*])c3sc(C)cc3c([16*])c2s1']","['[7*]C(C#N)C#N', '[7*]C1C(=O)c2cc(F)c(F)cc2C1[7*]', '[7*]C[8*]', '[8*]CCCCCC', '[14*]c1cc2sc3c(c2s1)C(c1ccc([16*])cc1)(c1ccc([16*])cc1)c1cc2c(cc1-3)C(c1ccc([16*])cc1)(c1ccc([16*])cc1)c1c-2sc2cc([14*])sc12']","['[8*]CC(CC)CCCC', '[14*]c1ccc(C)s1', '[14*]c1cc(Cl)c([14*])s1', '[14*]c1sc([14*])c2c1C(=O)c1c([14*])sc([14*])c1C2=O', '[14*]c1ccc([14*])s1', '[14*]c1cc2c([16*])c3sc(C)cc3c([16*])c2s1', '.', '[7*]C(C#N)C#N', '[7*]C1C(=O)c2cc(F)c(F)cc2C1[7*]', '[7*]C[8*]', '[8*]CCCCCC', '[14*]c1cc2sc3c(c2s1)C(c1ccc([16*])cc1)(c1ccc([16*])cc1)c1cc2c(cc1-3)C(c1ccc([16*])cc1)(c1ccc([16*])cc1)c1c-2sc2cc([14*])sc12']","[0, 0, 0, 0, 0, 5, 6, 192, 30, 7, 9, 1, 10, 42, 12, 13, 15]"
P1_PDTB-EF-T,IT-4F,-5.51,-3.59,-5.66875,-4.060416666666667,1.0,CB,DIO,25.0,11.5,11.5,0.896,64.0,"['[8*]CCCCCCCC', '[14*]c1cc([16*])c([14*])s1', '[16*]c1c(F)c(F)c(C)c2nsnc12', '[14*]c1ccc([14*])s1', '[14*]c1cc2c([16*])c3sc(C)cc3c([16*])c2s1']","['[7*]C(C#N)C#N', '[7*]C1C(=O)c2cc(F)c(F)cc2C1[7*]', '[7*]C[8*]', '[8*]CCCCCC', '[14*]c1cc2sc3c(c2s1)C(c1ccc([16*])cc1)(c1ccc([16*])cc1)c1cc2c(cc1-3)C(c1ccc([16*])cc1)(c1ccc([16*])cc1)c1c-2sc2cc([14*])sc12']","['[8*]CCCCCCCC', '[14*]c1cc([16*])c([14*])s1', '[16*]c1c(F)c(F)c(C)c2nsnc12', '[14*]c1ccc([14*])s1', '[14*]c1cc2c([16*])c3sc(C)cc3c([16*])c2s1', '.', '[7*]C(C#N)C#N', '[7*]C1C(=O)c2cc(F)c(F)cc2C1[7*]', '[7*]C[8*]', '[8*]CCCCCC', '[14*]c1cc2sc3c(c2s1)C(c1ccc([16*])cc1)(c1ccc([16*])cc1)c1cc2c(cc1-3)C(c1ccc([16*])cc1)(c1ccc([16*])cc1)c1c-2sc2cc([14*])sc12']","[0, 0, 0, 0, 0, 0, 21, 34, 193, 7, 9, 1, 10, 42, 12, 13, 15]"
P2_PDTB-EF-T,IT-4F,-5.5,-3.59,-5.66875,-4.060416666666667,1.0,CB,DIO,150.0,14.2,14.19,0.9,76.0,"['[3*]O[3*]', '[4*]CCCCCCCCCC', '[4*]CC(CC)CCCC', '[1*]C([6*])=O', '[8*]CCCC(CC)CCCC', '[11*]S[11*]', '[14*]c1sc(C)cc1[16*]', '[14*]c1cc(F)c([14*])s1', '[14*]c1cc([16*])c([14*])s1', '[14*]c1ccc([14*])s1', '[14*]c1cc2c([16*])c3sc(C)cc3c([16*])c2s1']","['[7*]C(C#N)C#N', '[7*]C1C(=O)c2cc(F)c(F)cc2C1[7*]', '[7*]C[8*]', '[8*]CCCCCC', '[14*]c1cc2sc3c(c2s1)C(c1ccc([16*])cc1)(c1ccc([16*])cc1)c1cc2c(cc1-3)C(c1ccc([16*])cc1)(c1ccc([16*])cc1)c1c-2sc2cc([14*])sc12']","['[3*]O[3*]', '[4*]CCCCCCCCCC', '[4*]CC(CC)CCCC', '[1*]C([6*])=O', '[8*]CCCC(CC)CCCC', '[11*]S[11*]', '[14*]c1sc(C)cc1[16*]', '[14*]c1cc(F)c([14*])s1', '[14*]c1cc([16*])c([14*])s1', '[14*]c1ccc([14*])s1', '[14*]c1cc2c([16*])c3sc(C)cc3c([16*])c2s1', '.', '[7*]C(C#N)C#N', '[7*]C1C(=O)c2cc(F)c(F)cc2C1[7*]', '[7*]C[8*]', '[8*]CCCCCC', '[14*]c1cc2sc3c(c2s1)C(c1ccc([16*])cc1)(c1ccc([16*])cc1)c1cc2c(cc1-3)C(c1ccc([16*])cc1)(c1ccc([16*])cc1)c1c-2sc2cc([14*])sc12']","[2, 194, 3, 4, 186, 25, 102, 24, 34, 7, 9, 1, 10, 42, 12, 13, 15]"
P3_PDTB-EF-T,IT-4F,-5.54,-3.6,-5.66875,-4.060416666666667,1.0,CB,DIO,25.0,11.2,11.2,0.904,61.0,"['[3*]O[3*]', '[4*]CCC(C)CCCC(C)C', '[4*]CC(CC)CCCC', '[1*]C([6*])=O', '[11*]S[11*]', '[14*]c1sc(C)cc1[16*]', '[14*]c1cc(F)c([14*])s1', '[14*]c1cc([16*])c([14*])s1', '[14*]c1ccc([14*])s1', '[14*]c1cc2c([16*])c3sc(C)cc3c([16*])c2s1']","['[7*]C(C#N)C#N', '[7*]C1C(=O)c2cc(F)c(F)cc2C1[7*]', '[7*]C[8*]', '[8*]CCCCCC', '[14*]c1cc2sc3c(c2s1)C(c1ccc([16*])cc1)(c1ccc([16*])cc1)c1cc2c(cc1-3)C(c1ccc([16*])cc1)(c1ccc([16*])cc1)c1c-2sc2cc([14*])sc12']","['[3*]O[3*]', '[4*]CCC(C)CCCC(C)C', '[4*]CC(CC)CCCC', '[1*]C([6*])=O', '[11*]S[11*]', '[14*]c1sc(C)cc1[16*]', '[14*]c1cc(F)c([14*])s1', '[14*]c1cc([16*])c([14*])s1', '[14*]c1ccc([14*])s1', '[14*]c1cc2c([16*])c3sc(C)cc3c([16*])c2s1', '.', '[7*]C(C#N)C#N', '[7*]C1C(=O)c2cc(F)c(F)cc2C1[7*]', '[7*]C[8*]', '[8*]CCCCCC', '[14*]c1cc2sc3c(c2s1)C(c1ccc([16*])cc1)(c1ccc([16*])cc1)c1cc2c(cc1-3)C(c1ccc([16*])cc1)(c1ccc([16*])cc1)c1c-2sc2cc([14*])sc12']","[0, 2, 195, 3, 4, 25, 102, 24, 34, 7, 9, 1, 10, 42, 12, 13, 15]"
PM6,Y6,-5.529999999999999,-3.555,-5.65,-4.1,0.833,CF,CN,110.0,15.7,15.71,0.83,74.8,"['[8*]CC(CC)CCCC', '[14*]c1ccc(C)s1', '[14*]c1cc(F)c([14*])s1', '[14*]c1sc([14*])c2c1C(=O)c1c([14*])sc([14*])c1C2=O', '[14*]c1ccc([14*])s1', '[14*]c1cc2c([16*])c3sc(C)cc3c([16*])c2s1']","['[7*]C(C#N)C#N', '[7*]C1C(=O)c2cc(F)c(F)cc2C1[7*]', '[8*]CC(CC)CCCC', '[7*]C[8*]', '[8*]CCCCCCCCCCC', '[9*]n1c2c3sc([14*])c([16*])c3sc2c2c3nsnc3c3c4sc5c([16*])c([14*])sc5c4n([9*])c3c21']","['[8*]CC(CC)CCCC', '[14*]c1ccc(C)s1', '[14*]c1cc(F)c([14*])s1', '[14*]c1sc([14*])c2c1C(=O)c1c([14*])sc([14*])c1C2=O', '[14*]c1ccc([14*])s1', '[14*]c1cc2c([16*])c3sc(C)cc3c([16*])c2s1', '.', '[7*]C(C#N)C#N', '[7*]C1C(=O)c2cc(F)c(F)cc2C1[7*]', '[8*]CC(CC)CCCC', '[7*]C[8*]', '[8*]CCCCCCCCCCC', '[9*]n1c2c3sc([14*])c([16*])c3sc2c2c3nsnc3c3c4sc5c([16*])c([14*])sc5c4n([9*])c3c21']","[0, 0, 0, 0, 5, 6, 24, 30, 7, 9, 1, 10, 42, 5, 12, 196, 197]"
PBDB-T,ITC6-IC,-5.297714285714285,-3.4170000000000003,-5.73,-3.92,1.0,CB,_,125.0,11.61,11.62,0.97,73.0,"['[8*]CC(CC)CCCC', '[14*]c1ccc(C)s1', '[14*]c1ccc([14*])s1', '[14*]c1sc([14*])c2c1C(=O)c1c([14*])sc([14*])c1C2=O', '[14*]c1cc2c([16*])c3sc(C)cc3c([16*])c2s1']","['[7*]C(C#N)C#N', '[7*]C1C(=O)c2ccccc2C1[7*]', '[7*]C[8*]', '[8*]CCCCCC', '[14*]c1sc2c3c(sc2c1[16*])-c1cc2c(cc1C3(c1ccc([16*])cc1)c1ccc([16*])cc1)-c1sc3c([16*])c([14*])sc3c1C2(c1ccc([16*])cc1)c1ccc([16*])cc1']","['[8*]CC(CC)CCCC', '[14*]c1ccc(C)s1', '[14*]c1ccc([14*])s1', '[14*]c1sc([14*])c2c1C(=O)c1c([14*])sc([14*])c1C2=O', '[14*]c1cc2c([16*])c3sc(C)cc3c([16*])c2s1', '.', '[7*]C(C#N)C#N', '[7*]C1C(=O)c2ccccc2C1[7*]', '[7*]C[8*]', '[8*]CCCCCC', '[14*]c1sc2c3c(sc2c1[16*])-c1cc2c(cc1C3(c1ccc([16*])cc1)c1ccc([16*])cc1)-c1sc3c([16*])c([14*])sc3c1C2(c1ccc([16*])cc1)c1ccc([16*])cc1']","[0, 0, 0, 0, 0, 0, 5, 6, 7, 30, 9, 1, 10, 11, 12, 13, 198]"