Donor,Acceptor,HOMO_D_eV,LUMO_D_eV,HOMO_A_eV,LUMO_A_eV,D_A_ratio_m_m,solvent,solvent_additive,annealing_temperature,PCE_percent,calc_PCE_percent,Voc_V,FF_percent,Donor_BRICS,Acceptor_BRICS,DA_pair_BRICS,DA_tokenized_BRICS
PTB7-Th,F8IC,-5.204782608695651,-3.5391891891891896,-5.43,-4.0,0.588,CF,DPE,25,10.9,10.87,0.64,67.6,"['O', 'CCCCC(C)CC', 'C=O', 'CCCCC(C)CC', 'Cc1scc2scc(F)c12', 'c1ccsc1', 'Cc1cc2cc3sccc3cc2s1']","['N#CCC#N', 'O=C1CCc2cc(F)c(F)cc21', 'C', 'CCCCCC', 'c1ccc(C2(c3ccccc3)c3c(sc4ccsc34)-c3sc4c5c(sc4c32)-c2sc3ccsc3c2C5(c2ccccc2)c2ccccc2)cc1']","['O', 'CCCCC(C)CC', 'C=O', 'CCCCC(C)CC', 'Cc1scc2scc(F)c12', 'c1ccsc1', 'Cc1cc2cc3sccc3cc2s1', '.', 'N#CCC#N', 'O=C1CCc2cc(F)c(F)cc21', 'C', 'CCCCCC', 'c1ccc(C2(c3ccccc3)c3c(sc4ccsc34)-c3sc4c5c(sc4c32)-c2sc3ccsc3c2C5(c2ccccc2)c2ccccc2)cc1']","[0, 0, 0, 0, 2, 3, 4, 3, 33, 6, 8, 1, 9, 39, 11, 12, 13]"
PTB7-Th,F10IC,-5.204782608695651,-3.5391891891891896,-5.26,-3.96,0.588,CF,DPE,25,10.2,10.16,0.73,66.8,"['O', 'CCCCC(C)CC', 'C=O', 'CCCCC(C)CC', 'Cc1scc2scc(F)c12', 'c1ccsc1', 'Cc1cc2cc3sccc3cc2s1']","['N#CCC#N', 'O=C1CCc2cc(F)c(F)cc21', 'C', 'CCCCCC', 'c1ccc(C2(c3ccccc3)c3c(sc4c5c(sc34)-c3sc4c(sc6ccsc64)c3C5(c3ccccc3)c3ccccc3)-c3sc4c(sc5ccsc54)c32)cc1']","['O', 'CCCCC(C)CC', 'C=O', 'CCCCC(C)CC', 'Cc1scc2scc(F)c12', 'c1ccsc1', 'Cc1cc2cc3sccc3cc2s1', '.', 'N#CCC#N', 'O=C1CCc2cc(F)c(F)cc21', 'C', 'CCCCCC', 'c1ccc(C2(c3ccccc3)c3c(sc4c5c(sc34)-c3sc4c(sc6ccsc64)c3C5(c3ccccc3)c3ccccc3)-c3sc4c(sc5ccsc54)c32)cc1']","[0, 0, 0, 0, 2, 3, 4, 3, 33, 6, 8, 1, 9, 39, 11, 12, 121]"
PBDTTT-C-T,DC-IDT2T,-5.128,-3.268,-5.43,-3.85,1.2,o-DCB:CF (6.667:1),_,25,3.93,3.92,0.9,52.3,"['CCCCC(CC)CC=O', 'CCCCC(C)CC', 'Cc1scc2sccc12', 'c1ccsc1', 'Cc1cc2cc3sccc3cc2s1']","['N#CCC#N', 'O=C1CCc2ccccc21', 'C', 'CCCCCC', 'c1ccsc1', 'c1ccc(C2(c3ccccc3)c3cc4c(cc3-c3sccc32)C(c2ccccc2)(c2ccccc2)c2ccsc2-4)cc1']","['CCCCC(CC)CC=O', 'CCCCC(C)CC', 'Cc1scc2sccc12', 'c1ccsc1', 'Cc1cc2cc3sccc3cc2s1', '.', 'N#CCC#N', 'O=C1CCc2ccccc21', 'C', 'CCCCCC', 'c1ccsc1', 'c1ccc(C2(c3ccccc3)c3cc4c(cc3-c3sccc32)C(c2ccccc2)(c2ccccc2)c2ccsc2-4)cc1']","[0, 0, 0, 0, 0, 85, 3, 84, 6, 8, 1, 9, 10, 11, 12, 6, 36]"
Pff4TBT-2DT,FBR,-5.34,-3.7,-5.786666666666666,-3.673333333333333,1.0,CB,_,25,7.8,7.86,1.12,61.0,"['CCCCCCCCCCCCC(C)CCCCCCCCCC', 'CCCCCCCCCCCCC(C)CCCCCCCCCC', 'Cc1cccs1', 'Cc1cccs1', 'c1ccsc1', 'c1ccsc1', 'Fc1cc2nsnc2cc1F']","['CC', 'O=C1CSC(=S)N1', 'C', 'c1ccc2nsnc2c1', 'CCCCCCCCC1(CCCCCCCC)c2ccccc2-c2ccccc21']","['CCCCCCCCCCCCC(C)CCCCCCCCCC', 'CCCCCCCCCCCCC(C)CCCCCCCCCC', 'Cc1cccs1', 'Cc1cccs1', 'c1ccsc1', 'c1ccsc1', 'Fc1cc2nsnc2cc1F', '.', 'CC', 'O=C1CSC(=S)N1', 'C', 'c1ccc2nsnc2c1', 'CCCCCCCCC1(CCCCCCCC)c2ccccc2-c2ccccc21']","[0, 0, 0, 0, 114, 114, 5, 5, 6, 6, 52, 1, 21, 69, 11, 34, 70]"
J71,TTz1,-5.353333333333333,-3.4318181818181825,-5.59,-3.66,0.5,CF,DIO,25,8.77,8.77,0.9,63.18,"['CCCCCCCCC(C)CCCCCC', 'Cc1cccs1', 'CCC[Si](CCC)(CCC)c1cccs1', 'c1ccsc1', 'Fc1cc2nnnc2cc1F', 'Cc1cc2cc3sccc3cc2s1']","['CCCCCCC(C)CCCC', 'N#CCC#N', 'C', 'CCCCCCC(CS)CCCC', 'S', 'c1ccc2nsnc2c1', 'c1ccsc1', 'c1nc2scnc2s1']","['CCCCCCCCC(C)CCCCCC', 'Cc1cccs1', 'CCC[Si](CCC)(CCC)c1cccs1', 'c1ccsc1', 'Fc1cc2nnnc2cc1F', 'Cc1cc2cc3sccc3cc2s1', '.', 'CCCCCCC(C)CCCC', 'N#CCC#N', 'C', 'CCCCCCC(CS)CCCC', 'S', 'c1ccc2nsnc2c1', 'c1ccsc1', 'c1nc2scnc2s1']","[0, 0, 16, 5, 17, 6, 18, 8, 1, 32, 9, 11, 51, 24, 34, 6, 124]"
J71,TTz2,-5.353333333333333,-3.4318181818181825,-5.45,-3.5,0.5,CF,DIO,25,6.3,6.3,0.92,53.73,"['CCCCCCCCC(C)CCCCCC', 'Cc1cccs1', 'CCC[Si](CCC)(CCC)c1cccs1', 'c1ccsc1', 'Fc1cc2nnnc2cc1F', 'Cc1cc2cc3sccc3cc2s1']","['CCCCCCC(C)CCCC', 'CC', 'CCCCCCC(CS)CCCC', 'S', 'N#CC(C#N)=c1nc(=O)/c(=C\\c2cccc3nsnc23)s1', 'c1ccsc1', 'c1nc2scnc2s1']","['CCCCCCCCC(C)CCCCCC', 'Cc1cccs1', 'CCC[Si](CCC)(CCC)c1cccs1', 'c1ccsc1', 'Fc1cc2nnnc2cc1F', 'Cc1cc2cc3sccc3cc2s1', '.', 'CCCCCCC(C)CCCC', 'CC', 'CCCCCCC(CS)CCCC', 'S', 'N#CC(C#N)=c1nc(=O)/c(=C\\c2cccc3nsnc23)s1', 'c1ccsc1', 'c1nc2scnc2s1']","[0, 0, 0, 16, 5, 17, 6, 18, 8, 1, 32, 21, 51, 24, 125, 6, 124]"
PBDB-T,FTIC-C8C6,-5.297714285714285,-3.4170000000000003,-5.62,-3.83,1.0,DCB,DIO,25,9.91,9.99,0.92,67.46,"['CCCCC(C)CC', 'Cc1cccs1', 'c1ccsc1', 'O=C1c2cscc2C(=O)c2cscc21', 'Cc1cc2cc3sccc3cc2s1']","['N#CCC#N', 'O=C1CCc2ccccc21', 'C', 'CCCCCCCCC1(CCCCCCCC)c2cc3c(cc2-c2cc4c(cc21)-c1sccc1C4(CCCCCC)CCCCCC)C(CCCCCC)(CCCCCC)c1ccsc1-3']","['CCCCC(C)CC', 'Cc1cccs1', 'c1ccsc1', 'O=C1c2cscc2C(=O)c2cscc21', 'Cc1cc2cc3sccc3cc2s1', '.', 'N#CCC#N', 'O=C1CCc2ccccc21', 'C', 'CCCCCCCCC1(CCCCCCCC)c2cc3c(cc2-c2cc4c(cc21)-c1sccc1C4(CCCCCC)CCCCCC)C(CCCCCC)(CCCCCC)c1ccsc1-3']","[0, 0, 0, 0, 0, 0, 0, 3, 5, 6, 29, 8, 1, 9, 10, 11, 126]"
PBDB-T,FTIC-C6C6,-5.297714285714285,-3.4170000000000003,-5.6,-3.81,1.0,DCB,DIO,25,9.18,9.21,0.91,63.17,"['CCCCC(C)CC', 'Cc1cccs1', 'c1ccsc1', 'O=C1c2cscc2C(=O)c2cscc21', 'Cc1cc2cc3sccc3cc2s1']","['N#CCC#N', 'O=C1CCc2ccccc21', 'C', 'CCCCCCC1(CCCCCC)c2cc3c(cc2-c2cc4c(cc21)-c1sccc1C4(CCCCCC)CCCCCC)C(CCCCCC)(CCCCCC)c1ccsc1-3']","['CCCCC(C)CC', 'Cc1cccs1', 'c1ccsc1', 'O=C1c2cscc2C(=O)c2cscc21', 'Cc1cc2cc3sccc3cc2s1', '.', 'N#CCC#N', 'O=C1CCc2ccccc21', 'C', 'CCCCCCC1(CCCCCC)c2cc3c(cc2-c2cc4c(cc21)-c1sccc1C4(CCCCCC)CCCCCC)C(CCCCCC)(CCCCCC)c1ccsc1-3']","[0, 0, 0, 0, 0, 0, 0, 3, 5, 6, 29, 8, 1, 9, 10, 11, 127]"
PBDB-T,FTIC-C6C8,-5.297714285714285,-3.4170000000000003,-5.64,-3.81,1.0,DCB,DIO,25,11.12,11.05,0.92,64.72,"['CCCCC(C)CC', 'Cc1cccs1', 'c1ccsc1', 'O=C1c2cscc2C(=O)c2cscc21', 'Cc1cc2cc3sccc3cc2s1']","['N#CCC#N', 'O=C1CCc2ccccc21', 'C', 'CCCCCCCCC1(CCCCCCCC)c2cc3c(cc2-c2sccc21)C(CCCCCC)(CCCCCC)c1cc2c(cc1-3)C(CCCCCCCC)(CCCCCCCC)c1ccsc1-2']","['CCCCC(C)CC', 'Cc1cccs1', 'c1ccsc1', 'O=C1c2cscc2C(=O)c2cscc21', 'Cc1cc2cc3sccc3cc2s1', '.', 'N#CCC#N', 'O=C1CCc2ccccc21', 'C', 'CCCCCCCCC1(CCCCCCCC)c2cc3c(cc2-c2sccc21)C(CCCCCC)(CCCCCC)c1cc2c(cc1-3)C(CCCCCCCC)(CCCCCCCC)c1ccsc1-2']","[0, 0, 0, 0, 0, 0, 0, 3, 5, 6, 29, 8, 1, 9, 10, 11, 128]"
PBDB-T,IXIC,-5.297714285714285,-3.4170000000000003,-5.13,-3.78,1.0,CF,_,100,11.3,11.21,0.82,65.4,"['CCCCC(C)CC', 'Cc1cccs1', 'c1ccsc1', 'O=C1c2cscc2C(=O)c2cscc21', 'Cc1cc2cc3sccc3cc2s1']","['N#CCC#N', 'O=C1CCc2ccccc21', 'C', 'CCCCCC', 'c1ccc(C2(c3ccccc3)c3c(sc4ccsc34)-c3sc4c5c(sc4c32)-c2sc3ccsc3c2C5(c2ccccc2)c2ccccc2)cc1']","['CCCCC(C)CC', 'Cc1cccs1', 'c1ccsc1', 'O=C1c2cscc2C(=O)c2cscc21', 'Cc1cc2cc3sccc3cc2s1', '.', 'N#CCC#N', 'O=C1CCc2ccccc21', 'C', 'CCCCCC', 'c1ccc(C2(c3ccccc3)c3c(sc4ccsc34)-c3sc4c5c(sc4c32)-c2sc3ccsc3c2C5(c2ccccc2)c2ccccc2)cc1']","[0, 0, 0, 0, 0, 0, 3, 5, 6, 29, 8, 1, 9, 10, 11, 12, 13]"
PBDB-T,IXIC-4Cl,-5.297714285714285,-3.4170000000000003,-5.2,-3.95,1.0,CF,_,100,11.2,11.25,0.69,71.2,"['CCCCC(C)CC', 'Cc1cccs1', 'c1ccsc1', 'O=C1c2cscc2C(=O)c2cscc21', 'Cc1cc2cc3sccc3cc2s1']","['N#CCC#N', 'O=C1CCc2cc(Cl)c(Cl)cc21', 'C', 'CCCCCC', 'c1ccc(C2(c3ccccc3)c3c(sc4ccsc34)-c3sc4c5c(sc4c32)-c2sc3ccsc3c2C5(c2ccccc2)c2ccccc2)cc1']","['CCCCC(C)CC', 'Cc1cccs1', 'c1ccsc1', 'O=C1c2cscc2C(=O)c2cscc21', 'Cc1cc2cc3sccc3cc2s1', '.', 'N#CCC#N', 'O=C1CCc2cc(Cl)c(Cl)cc21', 'C', 'CCCCCC', 'c1ccc(C2(c3ccccc3)c3c(sc4ccsc34)-c3sc4c5c(sc4c32)-c2sc3ccsc3c2C5(c2ccccc2)c2ccccc2)cc1']","[0, 0, 0, 0, 0, 0, 3, 5, 6, 29, 8, 1, 9, 38, 11, 12, 13]"
PBDB-T,ITIC-OE,-5.297714285714285,-3.4170000000000003,-5.67,-4.03,1.0,CB,DIO,120,8.4,8.43,0.85,67.0,"['CCCCC(C)CC', 'Cc1cccs1', 'c1ccsc1', 'O=C1c2cscc2C(=O)c2cscc21', 'Cc1cc2cc3sccc3cc2s1']","['CO', 'CC', 'O', 'N#CCC#N', 'O=C1CCc2ccccc21', 'C', 'C', 'c1ccc(C2(c3ccccc3)c3cc4c(cc3-c3sc5ccsc5c32)C(c2ccccc2)(c2ccccc2)c2c-4sc3ccsc23)cc1']","['CCCCC(C)CC', 'Cc1cccs1', 'c1ccsc1', 'O=C1c2cscc2C(=O)c2cscc21', 'Cc1cc2cc3sccc3cc2s1', '.', 'CO', 'CC', 'O', 'N#CCC#N', 'O=C1CCc2ccccc21', 'C', 'C', 'c1ccc(C2(c3ccccc3)c3cc4c(cc3-c3sc5ccsc5c32)C(c2ccccc2)(c2ccccc2)c2c-4sc3ccsc23)cc1']","[0, 0, 0, 3, 5, 6, 29, 8, 1, 61, 21, 2, 9, 10, 11, 11, 14]"
PBDB-T,IT-OM-1,-5.297714285714285,-3.4170000000000003,-5.5,-3.76,1.0,CB,_,150,6.3,6.34,1.01,51.0,"['CCCCC(C)CC', 'Cc1cccs1', 'c1ccsc1', 'O=C1c2cscc2C(=O)c2cscc21', 'Cc1cc2cc3sccc3cc2s1']","['CO', 'N#CCC#N', 'O=C1CCc2ccccc21', 'C', 'CCCCCC', 'c1ccc(C2(c3ccccc3)c3cc4c(cc3-c3sc5ccsc5c32)C(c2ccccc2)(c2ccccc2)c2c-4sc3ccsc23)cc1']","['CCCCC(C)CC', 'Cc1cccs1', 'c1ccsc1', 'O=C1c2cscc2C(=O)c2cscc21', 'Cc1cc2cc3sccc3cc2s1', '.', 'CO', 'N#CCC#N', 'O=C1CCc2ccccc21', 'C', 'CCCCCC', 'c1ccc(C2(c3ccccc3)c3cc4c(cc3-c3sc5ccsc5c32)C(c2ccccc2)(c2ccccc2)c2c-4sc3ccsc23)cc1']","[0, 0, 0, 0, 0, 3, 5, 6, 29, 8, 1, 61, 9, 10, 11, 12, 14]"
PBDB-T,IT-OM-2,-5.297714285714285,-3.4170000000000003,-5.49,-3.86,1.0,CB,_,150,11.8,11.9,0.93,73.0,"['CCCCC(C)CC', 'Cc1cccs1', 'c1ccsc1', 'O=C1c2cscc2C(=O)c2cscc21', 'Cc1cc2cc3sccc3cc2s1']","['CO', 'N#CCC#N', 'O=C1CCc2ccccc21', 'C', 'CCCCCC', 'c1ccc(C2(c3ccccc3)c3cc4c(cc3-c3sc5ccsc5c32)C(c2ccccc2)(c2ccccc2)c2c-4sc3ccsc23)cc1']","['CCCCC(C)CC', 'Cc1cccs1', 'c1ccsc1', 'O=C1c2cscc2C(=O)c2cscc21', 'Cc1cc2cc3sccc3cc2s1', '.', 'CO', 'N#CCC#N', 'O=C1CCc2ccccc21', 'C', 'CCCCCC', 'c1ccc(C2(c3ccccc3)c3cc4c(cc3-c3sc5ccsc5c32)C(c2ccccc2)(c2ccccc2)c2c-4sc3ccsc23)cc1']","[0, 0, 0, 0, 0, 3, 5, 6, 29, 8, 1, 61, 9, 10, 11, 12, 14]"
PBDB-T,IT-OM-3,-5.297714285714285,-3.4170000000000003,-5.52,-3.8,1.0,CB,_,150,10.8,10.8,0.97,68.0,"['CCCCC(C)CC', 'Cc1cccs1', 'c1ccsc1', 'O=C1c2cscc2C(=O)c2cscc21', 'Cc1cc2cc3sccc3cc2s1']","['CO', 'N#CCC#N', 'O=C1CCc2ccccc21', 'C', 'CCCCCC', 'c1ccc(C2(c3ccccc3)c3cc4c(cc3-c3sc5ccsc5c32)C(c2ccccc2)(c2ccccc2)c2c-4sc3ccsc23)cc1']","['CCCCC(C)CC', 'Cc1cccs1', 'c1ccsc1', 'O=C1c2cscc2C(=O)c2cscc21', 'Cc1cc2cc3sccc3cc2s1', '.', 'CO', 'N#CCC#N', 'O=C1CCc2ccccc21', 'C', 'CCCCCC', 'c1ccc(C2(c3ccccc3)c3cc4c(cc3-c3sc5ccsc5c32)C(c2ccccc2)(c2ccccc2)c2c-4sc3ccsc23)cc1']","[0, 0, 0, 0, 0, 3, 5, 6, 29, 8, 1, 61, 9, 10, 11, 12, 14]"
PBDB-T,IT-OM-4,-5.297714285714285,-3.4170000000000003,-5.49,-3.81,1.0,CB,_,150,7.9,7.9,0.96,56.0,"['CCCCC(C)CC', 'Cc1cccs1', 'c1ccsc1', 'O=C1c2cscc2C(=O)c2cscc21', 'Cc1cc2cc3sccc3cc2s1']","['CO', 'N#CCC#N', 'O=C1CCc2ccccc21', 'C', 'CCCCCC', 'c1ccc(C2(c3ccccc3)c3cc4c(cc3-c3sc5ccsc5c32)C(c2ccccc2)(c2ccccc2)c2c-4sc3ccsc23)cc1']","['CCCCC(C)CC', 'Cc1cccs1', 'c1ccsc1', 'O=C1c2cscc2C(=O)c2cscc21', 'Cc1cc2cc3sccc3cc2s1', '.', 'CO', 'N#CCC#N', 'O=C1CCc2ccccc21', 'C', 'CCCCCC', 'c1ccc(C2(c3ccccc3)c3cc4c(cc3-c3sc5ccsc5c32)C(c2ccccc2)(c2ccccc2)c2c-4sc3ccsc23)cc1']","[0, 0, 0, 0, 0, 3, 5, 6, 29, 8, 1, 61, 9, 10, 11, 12, 14]"
PBDB-T,ITCT-DM,-5.297714285714285,-3.4170000000000003,-5.48,-3.9,1.0,CB,DIO,120,10.56,9.59,0.904,65.0,"['CCCCC(C)CC', 'Cc1cccs1', 'c1ccsc1', 'O=C1c2cscc2C(=O)c2cscc21', 'Cc1cc2cc3sccc3cc2s1']","['N#CCC#N', 'Cc1sc(C)c2c1CCC2=O', 'C', 'CCCCCC', 'c1ccc(C2(c3ccccc3)c3cc4c(cc3-c3sc5ccsc5c32)C(c2ccccc2)(c2ccccc2)c2c-4sc3ccsc23)cc1']","['CCCCC(C)CC', 'Cc1cccs1', 'c1ccsc1', 'O=C1c2cscc2C(=O)c2cscc21', 'Cc1cc2cc3sccc3cc2s1', '.', 'N#CCC#N', 'Cc1sc(C)c2c1CCC2=O', 'C', 'CCCCCC', 'c1ccc(C2(c3ccccc3)c3cc4c(cc3-c3sc5ccsc5c32)C(c2ccccc2)(c2ccccc2)c2c-4sc3ccsc23)cc1']","[0, 0, 0, 0, 0, 0, 3, 5, 6, 29, 8, 1, 9, 129, 11, 12, 14]"
PBDB-T,ITCT,-5.297714285714285,-3.4170000000000003,-5.596666666666667,-3.796666666666667,1.0,CB,_,120,11.27,10.94,0.85,72.0,"['CCCCC(C)CC', 'Cc1cccs1', 'c1ccsc1', 'O=C1c2cscc2C(=O)c2cscc21', 'Cc1cc2cc3sccc3cc2s1']","['N#CCC#N', 'O=C1CCc2cscc21', 'C', 'CCCCCC', 'c1ccc(C2(c3ccccc3)c3cc4c(cc3-c3sc5ccsc5c32)C(c2ccccc2)(c2ccccc2)c2c-4sc3ccsc23)cc1']","['CCCCC(C)CC', 'Cc1cccs1', 'c1ccsc1', 'O=C1c2cscc2C(=O)c2cscc21', 'Cc1cc2cc3sccc3cc2s1', '.', 'N#CCC#N', 'O=C1CCc2cscc21', 'C', 'CCCCCC', 'c1ccc(C2(c3ccccc3)c3cc4c(cc3-c3sc5ccsc5c32)C(c2ccccc2)(c2ccccc2)c2c-4sc3ccsc23)cc1']","[0, 0, 0, 0, 0, 0, 3, 5, 6, 29, 8, 1, 9, 40, 11, 12, 14]"
PBDB-T,ITCPTC-Th,-5.297714285714285,-3.4170000000000003,-5.68,-4.03,1.0,CB,DIO,25,10.61,10.61,0.856,72.7,"['CCCCC(C)CC', 'Cc1cccs1', 'c1ccsc1', 'O=C1c2cscc2C(=O)c2cscc21', 'Cc1cc2cc3sccc3cc2s1']","['N#CCC#N', 'O=C1CCc2cscc21', 'C', 'CCCCCC', 'c1csc(C2(c3cccs3)c3cc4c(cc3-c3sc5ccsc5c32)C(c2cccs2)(c2cccs2)c2c-4sc3ccsc23)c1']","['CCCCC(C)CC', 'Cc1cccs1', 'c1ccsc1', 'O=C1c2cscc2C(=O)c2cscc21', 'Cc1cc2cc3sccc3cc2s1', '.', 'N#CCC#N', 'O=C1CCc2cscc21', 'C', 'CCCCCC', 'c1csc(C2(c3cccs3)c3cc4c(cc3-c3sc5ccsc5c32)C(c2cccs2)(c2cccs2)c2c-4sc3ccsc23)c1']","[0, 0, 0, 0, 0, 0, 3, 5, 6, 29, 8, 1, 9, 40, 11, 12, 59]"
PBDB-T,ITCPTC-Se,-5.297714285714285,-3.4170000000000003,-5.65,-4.0,1.0,CB,DIO,25,9.02,9.02,0.869,68.3,"['CCCCC(C)CC', 'Cc1cccs1', 'c1ccsc1', 'O=C1c2cscc2C(=O)c2cscc21', 'Cc1cc2cc3sccc3cc2s1']","['N#CCC#N', 'O=C1CCc2cscc21', 'C', 'CCCCCCc1ccc(C2(c3ccc(CCCCCC)[se]3)c3cc4c(cc3-c3sc5ccsc5c32)C(c2ccc(CCCCCC)[se]2)(c2ccc(CCCCCC)[se]2)c2c-4sc3ccsc23)[se]1']","['CCCCC(C)CC', 'Cc1cccs1', 'c1ccsc1', 'O=C1c2cscc2C(=O)c2cscc21', 'Cc1cc2cc3sccc3cc2s1', '.', 'N#CCC#N', 'O=C1CCc2cscc21', 'C', 'CCCCCCc1ccc(C2(c3ccc(CCCCCC)[se]3)c3cc4c(cc3-c3sc5ccsc5c32)C(c2ccc(CCCCCC)[se]2)(c2ccc(CCCCCC)[se]2)c2c-4sc3ccsc23)[se]1']","[0, 0, 0, 0, 0, 0, 0, 3, 5, 6, 29, 8, 1, 9, 40, 11, 130]"
PBDB-T,ITCC,-5.297714285714285,-3.4170000000000003,-5.47,-3.76,1.0,CB,DIO,100,11.28,11.28,0.98,71.32,"['CCCCC(C)CC', 'Cc1cccs1', 'c1ccsc1', 'O=C1c2cscc2C(=O)c2cscc21', 'Cc1cc2cc3sccc3cc2s1']","['N#CCC#N', 'O=C1CCc2ccsc21', 'C', 'CCCCCC', 'c1ccc(C2(c3ccccc3)c3cc4c(cc3-c3sc5ccsc5c32)C(c2ccccc2)(c2ccccc2)c2c-4sc3ccsc23)cc1']","['CCCCC(C)CC', 'Cc1cccs1', 'c1ccsc1', 'O=C1c2cscc2C(=O)c2cscc21', 'Cc1cc2cc3sccc3cc2s1', '.', 'N#CCC#N', 'O=C1CCc2ccsc21', 'C', 'CCCCCC', 'c1ccc(C2(c3ccccc3)c3cc4c(cc3-c3sc5ccsc5c32)C(c2ccccc2)(c2ccccc2)c2c-4sc3ccsc23)cc1']","[0, 0, 0, 0, 0, 0, 3, 5, 6, 29, 8, 1, 9, 78, 11, 12, 14]"
PTB7-Th,IFTIC,-5.204782608695651,-3.5391891891891896,-5.42,-3.85,0.5,o-DCB,_,25,5.77,5.71,0.9,53.5,"['O', 'CCCCC(C)CC', 'C=O', 'CCCCC(C)CC', 'Cc1scc2scc(F)c12', 'c1ccsc1', 'Cc1cc2cc3sccc3cc2s1']","['N#CCC#N', 'O=C1CCc2ccccc21', 'C', 'c1ccsc1', 'CCCCCCCCC1(CCCCCCCC)c2ccccc2-c2cc3c(cc21)-c1ccccc1C3(CCCCCCCC)CCCCCCCC']","['O', 'CCCCC(C)CC', 'C=O', 'CCCCC(C)CC', 'Cc1scc2scc(F)c12', 'c1ccsc1', 'Cc1cc2cc3sccc3cc2s1', '.', 'N#CCC#N', 'O=C1CCc2ccccc21', 'C', 'c1ccsc1', 'CCCCCCCCC1(CCCCCCCC)c2ccccc2-c2cc3c(cc21)-c1ccccc1C3(CCCCCCCC)CCCCCCCC']","[0, 0, 0, 0, 2, 3, 4, 3, 33, 6, 8, 1, 9, 10, 11, 6, 131]"
PBDTTT-C-T,IDT-2BM,-5.128,-3.268,-5.586666666666666,-4.083333333333333,1.5,o-DCB,CN,25,4.19,4.06,0.76,54.4,"['CCCCC(CC)CC=O', 'CCCCC(C)CC', 'Cc1scc2sccc12', 'c1ccsc1', 'Cc1cc2cc3sccc3cc2s1']","['N#CCC#N', 'C', 'CCCCCC', 'c1ccc2nsnc2c1', 'c1ccc(C2(c3ccccc3)c3cc4c(cc3-c3sccc32)C(c2ccccc2)(c2ccccc2)c2ccsc2-4)cc1']","['CCCCC(CC)CC=O', 'CCCCC(C)CC', 'Cc1scc2sccc12', 'c1ccsc1', 'Cc1cc2cc3sccc3cc2s1', '.', 'N#CCC#N', 'C', 'CCCCCC', 'c1ccc2nsnc2c1', 'c1ccc(C2(c3ccccc3)c3cc4c(cc3-c3sccc32)C(c2ccccc2)(c2ccccc2)c2ccsc2-4)cc1']","[0, 0, 0, 0, 0, 0, 85, 3, 84, 6, 8, 1, 9, 11, 12, 34, 36]"
PBDTTT-C-T,IDTT-2BM,-5.128,-3.268,-5.5,-3.8,1.5,o-DCB,DIO,25,4.7,4.64,0.845,56.8,"['CCCCC(CC)CC=O', 'CCCCC(C)CC', 'Cc1scc2sccc12', 'c1ccsc1', 'Cc1cc2cc3sccc3cc2s1']","['N#CCC#N', 'C', 'CCCCCC', 'c1ccc2nsnc2c1', 'c1ccc(C2(c3ccccc3)c3cc4c(cc3-c3sc5ccsc5c32)C(c2ccccc2)(c2ccccc2)c2c-4sc3ccsc23)cc1']","['CCCCC(CC)CC=O', 'CCCCC(C)CC', 'Cc1scc2sccc12', 'c1ccsc1', 'Cc1cc2cc3sccc3cc2s1', '.', 'N#CCC#N', 'C', 'CCCCCC', 'c1ccc2nsnc2c1', 'c1ccc(C2(c3ccccc3)c3cc4c(cc3-c3sc5ccsc5c32)C(c2ccccc2)(c2ccccc2)c2c-4sc3ccsc23)cc1']","[0, 0, 0, 0, 0, 0, 85, 3, 84, 6, 8, 1, 9, 11, 12, 34, 14]"
PBDB-T,IDT-Tz,-5.297714285714285,-3.4170000000000003,-5.62,-4.09,1.0,CB,CN,25,8.52,8.52,0.88,70.8,"['CCCCC(C)CC', 'Cc1cccs1', 'c1ccsc1', 'O=C1c2cscc2C(=O)c2cscc21', 'Cc1cc2cc3sccc3cc2s1']","['N#CCC#N', 'O=C1CCc2ccccc21', 'C', 'CCCCCC', 'c1cscn1', 'c1ccc(C2(c3ccccc3)c3ccccc3-c3cc4c(cc32)-c2ccccc2C4(c2ccccc2)c2ccccc2)cc1']","['CCCCC(C)CC', 'Cc1cccs1', 'c1ccsc1', 'O=C1c2cscc2C(=O)c2cscc21', 'Cc1cc2cc3sccc3cc2s1', '.', 'N#CCC#N', 'O=C1CCc2ccccc21', 'C', 'CCCCCC', 'c1cscn1', 'c1ccc(C2(c3ccccc3)c3ccccc3-c3cc4c(cc32)-c2ccccc2C4(c2ccccc2)c2ccccc2)cc1']","[0, 0, 0, 0, 0, 3, 5, 6, 29, 8, 1, 9, 10, 11, 12, 132, 133]"
PTB7-Th,IDT-IC,-5.204782608695651,-3.5391891891891896,-5.693333333333334,-3.866666666666666,0.667,o-DCB,_,150,3.16,3.16,0.83,40.0,"['O', 'CCCCC(C)CC', 'C=O', 'CCCCC(C)CC', 'Cc1scc2scc(F)c12', 'c1ccsc1', 'Cc1cc2cc3sccc3cc2s1']","['N#CCC#N', 'O=C1CCc2ccccc21', 'C', 'CCCCCC', 'c1ccc(C2(c3ccccc3)c3cc4c(cc3-c3sccc32)C(c2ccccc2)(c2ccccc2)c2ccsc2-4)cc1']","['O', 'CCCCC(C)CC', 'C=O', 'CCCCC(C)CC', 'Cc1scc2scc(F)c12', 'c1ccsc1', 'Cc1cc2cc3sccc3cc2s1', '.', 'N#CCC#N', 'O=C1CCc2ccccc21', 'C', 'CCCCCC', 'c1ccc(C2(c3ccccc3)c3cc4c(cc3-c3sccc32)C(c2ccccc2)(c2ccccc2)c2ccsc2-4)cc1']","[0, 0, 0, 0, 2, 3, 4, 3, 33, 6, 8, 1, 9, 10, 11, 12, 36]"
PTB7-Th,IEIC,-5.204782608695651,-3.5391891891891896,-5.455,-3.8625,0.667,o-DCB,_,25,6.31,6.31,0.97,48.0,"['O', 'CCCCC(C)CC', 'C=O', 'CCCCC(C)CC', 'Cc1scc2scc(F)c12', 'c1ccsc1', 'Cc1cc2cc3sccc3cc2s1']","['N#CCC#N', 'O=C1CCc2ccccc21', 'C', 'CCCCC(C)CC', 'CCCCCC', 'c1ccsc1', 'c1ccc(C2(c3ccccc3)c3cc4c(cc3-c3sccc32)C(c2ccccc2)(c2ccccc2)c2ccsc2-4)cc1']","['O', 'CCCCC(C)CC', 'C=O', 'CCCCC(C)CC', 'Cc1scc2scc(F)c12', 'c1ccsc1', 'Cc1cc2cc3sccc3cc2s1', '.', 'N#CCC#N', 'O=C1CCc2ccccc21', 'C', 'CCCCC(C)CC', 'CCCCCC', 'c1ccsc1', 'c1ccc(C2(c3ccccc3)c3cc4c(cc3-c3sccc32)C(c2ccccc2)(c2ccccc2)c2ccsc2-4)cc1']","[0, 0, 2, 3, 4, 3, 33, 6, 8, 1, 9, 10, 11, 3, 12, 6, 36]"
PTB7-Th,IDT-N,-5.204782608695651,-3.5391891891891896,-5.73,-4.08,1.0,CF,_,100,5.5,5.48,0.73,57.7,"['O', 'CCCCC(C)CC', 'C=O', 'CCCCC(C)CC', 'Cc1scc2scc(F)c12', 'c1ccsc1', 'Cc1cc2cc3sccc3cc2s1']","['N#CCC#N', 'O=C1CCc2cc3ccccc3cc21', 'C', 'CCCCCC', 'c1ccc(C2(c3ccccc3)c3cc4c(cc3-c3sccc32)C(c2ccccc2)(c2ccccc2)c2ccsc2-4)cc1']","['O', 'CCCCC(C)CC', 'C=O', 'CCCCC(C)CC', 'Cc1scc2scc(F)c12', 'c1ccsc1', 'Cc1cc2cc3sccc3cc2s1', '.', 'N#CCC#N', 'O=C1CCc2cc3ccccc3cc21', 'C', 'CCCCCC', 'c1ccc(C2(c3ccccc3)c3cc4c(cc3-c3sccc32)C(c2ccccc2)(c2ccccc2)c2ccsc2-4)cc1']","[0, 0, 0, 0, 2, 3, 4, 3, 33, 6, 8, 1, 9, 37, 11, 12, 36]"
PTB7-Th,IDT-T-N,-5.204782608695651,-3.5391891891891896,-5.58,-4.06,1.0,CF,CN,100,6.6,6.56,0.87,51.38,"['O', 'CCCCC(C)CC', 'C=O', 'CCCCC(C)CC', 'Cc1scc2scc(F)c12', 'c1ccsc1', 'Cc1cc2cc3sccc3cc2s1']","['N#CCC#N', 'O=C1CCc2cc3ccccc3cc21', 'C', 'CCCCC(C)CC', 'CCCCCC', 'c1ccsc1', 'c1ccc(C2(c3ccccc3)c3cc4c(cc3-c3sccc32)C(c2ccccc2)(c2ccccc2)c2ccsc2-4)cc1']","['O', 'CCCCC(C)CC', 'C=O', 'CCCCC(C)CC', 'Cc1scc2scc(F)c12', 'c1ccsc1', 'Cc1cc2cc3sccc3cc2s1', '.', 'N#CCC#N', 'O=C1CCc2cc3ccccc3cc21', 'C', 'CCCCC(C)CC', 'CCCCCC', 'c1ccsc1', 'c1ccc(C2(c3ccccc3)c3cc4c(cc3-c3sccc32)C(c2ccccc2)(c2ccccc2)c2ccsc2-4)cc1']","[0, 0, 2, 3, 4, 3, 33, 6, 8, 1, 9, 37, 11, 3, 12, 6, 36]"
PBDB-T,IDT-N,-5.297714285714285,-3.4170000000000003,-5.73,-4.08,1.0,CF,CN,100,8.99,9.02,0.79,71.91,"['CCCCC(C)CC', 'Cc1cccs1', 'c1ccsc1', 'O=C1c2cscc2C(=O)c2cscc21', 'Cc1cc2cc3sccc3cc2s1']","['N#CCC#N', 'O=C1CCc2cc3ccccc3cc21', 'C', 'CCCCCC', 'c1ccc(C2(c3ccccc3)c3cc4c(cc3-c3sccc32)C(c2ccccc2)(c2ccccc2)c2ccsc2-4)cc1']","['CCCCC(C)CC', 'Cc1cccs1', 'c1ccsc1', 'O=C1c2cscc2C(=O)c2cscc21', 'Cc1cc2cc3sccc3cc2s1', '.', 'N#CCC#N', 'O=C1CCc2cc3ccccc3cc21', 'C', 'CCCCCC', 'c1ccc(C2(c3ccccc3)c3cc4c(cc3-c3sccc32)C(c2ccccc2)(c2ccccc2)c2ccsc2-4)cc1']","[0, 0, 0, 0, 0, 0, 3, 5, 6, 29, 8, 1, 9, 37, 11, 12, 36]"
PBDB-T,IDT-T-N,-5.297714285714285,-3.4170000000000003,-5.58,-4.06,1.0,CF,CN,100,7.4,7.4,0.94,56.11,"['CCCCC(C)CC', 'Cc1cccs1', 'c1ccsc1', 'O=C1c2cscc2C(=O)c2cscc21', 'Cc1cc2cc3sccc3cc2s1']","['N#CCC#N', 'O=C1CCc2cc3ccccc3cc21', 'C', 'CCCCC(C)CC', 'CCCCCC', 'c1ccsc1', 'c1ccc(C2(c3ccccc3)c3cc4c(cc3-c3sccc32)C(c2ccccc2)(c2ccccc2)c2ccsc2-4)cc1']","['CCCCC(C)CC', 'Cc1cccs1', 'c1ccsc1', 'O=C1c2cscc2C(=O)c2cscc21', 'Cc1cc2cc3sccc3cc2s1', '.', 'N#CCC#N', 'O=C1CCc2cc3ccccc3cc21', 'C', 'CCCCC(C)CC', 'CCCCCC', 'c1ccsc1', 'c1ccc(C2(c3ccccc3)c3cc4c(cc3-c3sccc32)C(c2ccccc2)(c2ccccc2)c2ccsc2-4)cc1']","[0, 0, 0, 0, 3, 5, 6, 29, 8, 1, 9, 37, 11, 3, 12, 6, 36]"