Donor,Acceptor,HOMO_D_eV,LUMO_D_eV,HOMO_A_eV,LUMO_A_eV,D_A_ratio_m_m,solvent,total_solids_conc_mg_mL,solvent_additive,annealing_temperature,PCE_percent,calc_PCE_percent,Voc_V,FF_percent,Donor_BRICS,Acceptor_BRICS,DA_pair_BRICS,DA_tokenized_BRICS
PBDTT-6ttTPD,IDIC,-5.36,-3.51,-5.706,-4.002666666666667,1.0,CF,12.0,DIO,25.0,8.58,8.58,0.822,65.5,"[<rdkit.Chem.rdchem.Mol object at 0x7f5838dc3ae0>, <rdkit.Chem.rdchem.Mol object at 0x7f5838dc4200>, <rdkit.Chem.rdchem.Mol object at 0x7f5838dc4580>, <rdkit.Chem.rdchem.Mol object at 0x7f5838dc50e0>, <rdkit.Chem.rdchem.Mol object at 0x7f5838dc5a10>, <rdkit.Chem.rdchem.Mol object at 0x7f5838dc5150>, <rdkit.Chem.rdchem.Mol object at 0x7f5838dc5d20>, <rdkit.Chem.rdchem.Mol object at 0x7f5838dc6730>]","[<rdkit.Chem.rdchem.Mol object at 0x7f5838dc6b90>, <rdkit.Chem.rdchem.Mol object at 0x7f5838dc5fc0>, <rdkit.Chem.rdchem.Mol object at 0x7f5838dc5000>, <rdkit.Chem.rdchem.Mol object at 0x7f5838dc6500>]","[<rdkit.Chem.rdchem.Mol object at 0x7f5838dc3ae0>, <rdkit.Chem.rdchem.Mol object at 0x7f5838dc4200>, <rdkit.Chem.rdchem.Mol object at 0x7f5838dc4580>, <rdkit.Chem.rdchem.Mol object at 0x7f5838dc50e0>, <rdkit.Chem.rdchem.Mol object at 0x7f5838dc5a10>, <rdkit.Chem.rdchem.Mol object at 0x7f5838dc5150>, <rdkit.Chem.rdchem.Mol object at 0x7f5838dc5d20>, <rdkit.Chem.rdchem.Mol object at 0x7f5838dc6730>, '.', <rdkit.Chem.rdchem.Mol object at 0x7f5838dc6b90>, <rdkit.Chem.rdchem.Mol object at 0x7f5838dc5fc0>, <rdkit.Chem.rdchem.Mol object at 0x7f5838dc5000>, <rdkit.Chem.rdchem.Mol object at 0x7f5838dc6500>]","[0, 0, 0, 0, 2689, 2690, 2691, 2692, 2693, 2694, 2695, 2696, 1, 2697, 2698, 2699, 2700]"
PMOT16,IDIC,-5.52,-3.66,-5.706,-4.002666666666667,1.0,CF,12.0,DIO,25.0,10.04,10.04,0.925,67.3,"[<rdkit.Chem.rdchem.Mol object at 0x7f5838dc3f40>, <rdkit.Chem.rdchem.Mol object at 0x7f5838dc6ce0>, <rdkit.Chem.rdchem.Mol object at 0x7f5838dc5230>, <rdkit.Chem.rdchem.Mol object at 0x7f5838dc5620>, <rdkit.Chem.rdchem.Mol object at 0x7f5838dc4cf0>, <rdkit.Chem.rdchem.Mol object at 0x7f5838dc4b30>, <rdkit.Chem.rdchem.Mol object at 0x7f5838dc43c0>, <rdkit.Chem.rdchem.Mol object at 0x7f5838dc6ea0>, <rdkit.Chem.rdchem.Mol object at 0x7f5838dc6dc0>]","[<rdkit.Chem.rdchem.Mol object at 0x7f5838dc7370>, <rdkit.Chem.rdchem.Mol object at 0x7f5838dc6490>, <rdkit.Chem.rdchem.Mol object at 0x7f5838dc5c40>, <rdkit.Chem.rdchem.Mol object at 0x7f5838dc4120>]","[<rdkit.Chem.rdchem.Mol object at 0x7f5838dc3f40>, <rdkit.Chem.rdchem.Mol object at 0x7f5838dc6ce0>, <rdkit.Chem.rdchem.Mol object at 0x7f5838dc5230>, <rdkit.Chem.rdchem.Mol object at 0x7f5838dc5620>, <rdkit.Chem.rdchem.Mol object at 0x7f5838dc4cf0>, <rdkit.Chem.rdchem.Mol object at 0x7f5838dc4b30>, <rdkit.Chem.rdchem.Mol object at 0x7f5838dc43c0>, <rdkit.Chem.rdchem.Mol object at 0x7f5838dc6ea0>, <rdkit.Chem.rdchem.Mol object at 0x7f5838dc6dc0>, '.', <rdkit.Chem.rdchem.Mol object at 0x7f5838dc7370>, <rdkit.Chem.rdchem.Mol object at 0x7f5838dc6490>, <rdkit.Chem.rdchem.Mol object at 0x7f5838dc5c40>, <rdkit.Chem.rdchem.Mol object at 0x7f5838dc4120>]","[0, 0, 0, 2701, 2702, 2703, 2704, 2705, 2706, 2707, 2708, 2709, 1, 2710, 2711, 2712, 2713]"
PTZP,IDIC,-5.41,-3.4,-5.706,-4.002666666666667,0.667,CB,18.0,DIO,25.0,11.8,11.81,0.9,73.3,"[<rdkit.Chem.rdchem.Mol object at 0x7f5838dc6c00>, <rdkit.Chem.rdchem.Mol object at 0x7f5838dc5b60>, <rdkit.Chem.rdchem.Mol object at 0x7f5838dc6570>, <rdkit.Chem.rdchem.Mol object at 0x7f5838dc5cb0>, <rdkit.Chem.rdchem.Mol object at 0x7f5838dc6d50>, <rdkit.Chem.rdchem.Mol object at 0x7f5838dc51c0>, <rdkit.Chem.rdchem.Mol object at 0x7f5838dc6110>, <rdkit.Chem.rdchem.Mol object at 0x7f5838dc4eb0>]","[<rdkit.Chem.rdchem.Mol object at 0x7f5838dc4970>, <rdkit.Chem.rdchem.Mol object at 0x7f5838dc4ac0>, <rdkit.Chem.rdchem.Mol object at 0x7f5838dc55b0>, <rdkit.Chem.rdchem.Mol object at 0x7f5838dc5690>]","[<rdkit.Chem.rdchem.Mol object at 0x7f5838dc6c00>, <rdkit.Chem.rdchem.Mol object at 0x7f5838dc5b60>, <rdkit.Chem.rdchem.Mol object at 0x7f5838dc6570>, <rdkit.Chem.rdchem.Mol object at 0x7f5838dc5cb0>, <rdkit.Chem.rdchem.Mol object at 0x7f5838dc6d50>, <rdkit.Chem.rdchem.Mol object at 0x7f5838dc51c0>, <rdkit.Chem.rdchem.Mol object at 0x7f5838dc6110>, <rdkit.Chem.rdchem.Mol object at 0x7f5838dc4eb0>, '.', <rdkit.Chem.rdchem.Mol object at 0x7f5838dc4970>, <rdkit.Chem.rdchem.Mol object at 0x7f5838dc4ac0>, <rdkit.Chem.rdchem.Mol object at 0x7f5838dc55b0>, <rdkit.Chem.rdchem.Mol object at 0x7f5838dc5690>]","[0, 0, 0, 0, 2714, 2715, 2716, 2717, 2718, 2719, 2720, 2721, 1, 2722, 2723, 2724, 2725]"
PffBT2T-TT,O-IDTBR,-5.42,-3.52,-5.535,-3.74,0.667,"1,2,4-trimethylbenzene",17.5,_,90.0,10.4,10.36,1.08,67.0,"[<rdkit.Chem.rdchem.Mol object at 0x7f5838dc5930>, <rdkit.Chem.rdchem.Mol object at 0x7f5838dc5d90>, <rdkit.Chem.rdchem.Mol object at 0x7f5838dc5ee0>, <rdkit.Chem.rdchem.Mol object at 0x7f5838dc4820>, <rdkit.Chem.rdchem.Mol object at 0x7f5838dc5310>]","[<rdkit.Chem.rdchem.Mol object at 0x7f5838dc60a0>, <rdkit.Chem.rdchem.Mol object at 0x7f5838dc4510>, <rdkit.Chem.rdchem.Mol object at 0x7f5838dc4f20>, <rdkit.Chem.rdchem.Mol object at 0x7f5838dc4430>, <rdkit.Chem.rdchem.Mol object at 0x7f5838dc6c70>]","[<rdkit.Chem.rdchem.Mol object at 0x7f5838dc5930>, <rdkit.Chem.rdchem.Mol object at 0x7f5838dc5d90>, <rdkit.Chem.rdchem.Mol object at 0x7f5838dc5ee0>, <rdkit.Chem.rdchem.Mol object at 0x7f5838dc4820>, <rdkit.Chem.rdchem.Mol object at 0x7f5838dc5310>, '.', <rdkit.Chem.rdchem.Mol object at 0x7f5838dc60a0>, <rdkit.Chem.rdchem.Mol object at 0x7f5838dc4510>, <rdkit.Chem.rdchem.Mol object at 0x7f5838dc4f20>, <rdkit.Chem.rdchem.Mol object at 0x7f5838dc4430>, <rdkit.Chem.rdchem.Mol object at 0x7f5838dc6c70>]","[0, 0, 0, 0, 0, 0, 2726, 2727, 2728, 2729, 2730, 1, 2731, 2732, 2733, 2734, 2735]"
PTB7-Th,IDT-BT-R,-5.204782608695651,-3.5391891891891896,-5.3,-3.56,0.667,DCB,25.0,_,150.0,8.2,8.2,1.02,59.1,"[<rdkit.Chem.rdchem.Mol object at 0x7f5838dc66c0>, <rdkit.Chem.rdchem.Mol object at 0x7f5838dc5460>, <rdkit.Chem.rdchem.Mol object at 0x7f5838dc69d0>, <rdkit.Chem.rdchem.Mol object at 0x7f5838dc4270>, <rdkit.Chem.rdchem.Mol object at 0x7f5838dc6ff0>, <rdkit.Chem.rdchem.Mol object at 0x7f5838dc5af0>, <rdkit.Chem.rdchem.Mol object at 0x7f5838dc7450>]","[<rdkit.Chem.rdchem.Mol object at 0x7f5838dc6650>, <rdkit.Chem.rdchem.Mol object at 0x7f5838dc54d0>, <rdkit.Chem.rdchem.Mol object at 0x7f5838dc6a40>, <rdkit.Chem.rdchem.Mol object at 0x7f5838dc5540>, <rdkit.Chem.rdchem.Mol object at 0x7f5838dc76f0>, <rdkit.Chem.rdchem.Mol object at 0x7f5838dc75a0>]","[<rdkit.Chem.rdchem.Mol object at 0x7f5838dc66c0>, <rdkit.Chem.rdchem.Mol object at 0x7f5838dc5460>, <rdkit.Chem.rdchem.Mol object at 0x7f5838dc69d0>, <rdkit.Chem.rdchem.Mol object at 0x7f5838dc4270>, <rdkit.Chem.rdchem.Mol object at 0x7f5838dc6ff0>, <rdkit.Chem.rdchem.Mol object at 0x7f5838dc5af0>, <rdkit.Chem.rdchem.Mol object at 0x7f5838dc7450>, '.', <rdkit.Chem.rdchem.Mol object at 0x7f5838dc6650>, <rdkit.Chem.rdchem.Mol object at 0x7f5838dc54d0>, <rdkit.Chem.rdchem.Mol object at 0x7f5838dc6a40>, <rdkit.Chem.rdchem.Mol object at 0x7f5838dc5540>, <rdkit.Chem.rdchem.Mol object at 0x7f5838dc76f0>, <rdkit.Chem.rdchem.Mol object at 0x7f5838dc75a0>]","[0, 0, 0, 2747, 2748, 2749, 2750, 2751, 2752, 2753, 1, 2754, 2755, 2756, 2757, 2758, 2759]"
PTB7-Th,IDT-BT-R-CN,-5.204782608695651,-3.5391891891891896,-5.38,-3.67,0.5,DCB,25.0,_,150.0,5.5,5.47,0.88,50.1,"[<rdkit.Chem.rdchem.Mol object at 0x7f5838dc7680>, <rdkit.Chem.rdchem.Mol object at 0x7f5838dc7610>, <rdkit.Chem.rdchem.Mol object at 0x7f5838dc7060>, <rdkit.Chem.rdchem.Mol object at 0x7f5838dc6f80>, <rdkit.Chem.rdchem.Mol object at 0x7f5838dc7300>, <rdkit.Chem.rdchem.Mol object at 0x7f5838dc71b0>, <rdkit.Chem.rdchem.Mol object at 0x7f5838dc63b0>]","[<rdkit.Chem.rdchem.Mol object at 0x7f5838dc45f0>, <rdkit.Chem.rdchem.Mol object at 0x7f5838dc6960>, <rdkit.Chem.rdchem.Mol object at 0x7f5838dc7a70>]","[<rdkit.Chem.rdchem.Mol object at 0x7f5838dc7680>, <rdkit.Chem.rdchem.Mol object at 0x7f5838dc7610>, <rdkit.Chem.rdchem.Mol object at 0x7f5838dc7060>, <rdkit.Chem.rdchem.Mol object at 0x7f5838dc6f80>, <rdkit.Chem.rdchem.Mol object at 0x7f5838dc7300>, <rdkit.Chem.rdchem.Mol object at 0x7f5838dc71b0>, <rdkit.Chem.rdchem.Mol object at 0x7f5838dc63b0>, '.', <rdkit.Chem.rdchem.Mol object at 0x7f5838dc45f0>, <rdkit.Chem.rdchem.Mol object at 0x7f5838dc6960>, <rdkit.Chem.rdchem.Mol object at 0x7f5838dc7a70>]","[0, 0, 0, 0, 0, 0, 2760, 2761, 2762, 2763, 2764, 2765, 2766, 1, 2767, 2768, 2769]"
P3HT,BTA1,-5.057777777777777,-2.989444444444445,-5.510000000000001,-3.5499999999999994,1.667,CF,15.0,CN,100.0,5.24,5.24,1.02,70.0,"[<rdkit.Chem.rdchem.Mol object at 0x7f5838dc7c30>, <rdkit.Chem.rdchem.Mol object at 0x7f5838dc7ca0>, <rdkit.Chem.rdchem.Mol object at 0x7f5838dd85f0>, <rdkit.Chem.rdchem.Mol object at 0x7f5838dc7ae0>]","[<rdkit.Chem.rdchem.Mol object at 0x7f5838dc77d0>, <rdkit.Chem.rdchem.Mol object at 0x7f5838dc7840>, <rdkit.Chem.rdchem.Mol object at 0x7f5838dc5770>, <rdkit.Chem.rdchem.Mol object at 0x7f5838dc4740>, <rdkit.Chem.rdchem.Mol object at 0x7f5838dc7d80>, <rdkit.Chem.rdchem.Mol object at 0x7f5838dd9f50>, <rdkit.Chem.rdchem.Mol object at 0x7f5838dc74c0>]","[<rdkit.Chem.rdchem.Mol object at 0x7f5838dc7c30>, <rdkit.Chem.rdchem.Mol object at 0x7f5838dc7ca0>, <rdkit.Chem.rdchem.Mol object at 0x7f5838dd85f0>, <rdkit.Chem.rdchem.Mol object at 0x7f5838dc7ae0>, '.', <rdkit.Chem.rdchem.Mol object at 0x7f5838dc77d0>, <rdkit.Chem.rdchem.Mol object at 0x7f5838dc7840>, <rdkit.Chem.rdchem.Mol object at 0x7f5838dc5770>, <rdkit.Chem.rdchem.Mol object at 0x7f5838dc4740>, <rdkit.Chem.rdchem.Mol object at 0x7f5838dc7d80>, <rdkit.Chem.rdchem.Mol object at 0x7f5838dd9f50>, <rdkit.Chem.rdchem.Mol object at 0x7f5838dc74c0>]","[0, 0, 0, 0, 0, 2781, 2782, 2783, 2784, 1, 2785, 2786, 2787, 2788, 2789, 2790, 2791]"
PBDTTT-EFT,IEICO-4F,-5.24,-3.66,-5.309971428571429,-3.851028571428572,0.667,CB,25.0,DIO,100.0,10.0,10.01,0.739,59.4,"[<rdkit.Chem.rdchem.Mol object at 0x7f5838dd8c10>, <rdkit.Chem.rdchem.Mol object at 0x7f5838dda2d0>, <rdkit.Chem.rdchem.Mol object at 0x7f5838dd8ac0>, <rdkit.Chem.rdchem.Mol object at 0x7f5838dd83c0>, <rdkit.Chem.rdchem.Mol object at 0x7f5838dd8430>, <rdkit.Chem.rdchem.Mol object at 0x7f5838dda340>, <rdkit.Chem.rdchem.Mol object at 0x7f5838dd82e0>]","[<rdkit.Chem.rdchem.Mol object at 0x7f5838dc78b0>, <rdkit.Chem.rdchem.Mol object at 0x7f5838dd84a0>, <rdkit.Chem.rdchem.Mol object at 0x7f5838dd8660>, <rdkit.Chem.rdchem.Mol object at 0x7f5838dd8190>, <rdkit.Chem.rdchem.Mol object at 0x7f5838dd8f20>, <rdkit.Chem.rdchem.Mol object at 0x7f5838dd8eb0>, <rdkit.Chem.rdchem.Mol object at 0x7f5838dd9bd0>, <rdkit.Chem.rdchem.Mol object at 0x7f5838dd93f0>]","[<rdkit.Chem.rdchem.Mol object at 0x7f5838dd8c10>, <rdkit.Chem.rdchem.Mol object at 0x7f5838dda2d0>, <rdkit.Chem.rdchem.Mol object at 0x7f5838dd8ac0>, <rdkit.Chem.rdchem.Mol object at 0x7f5838dd83c0>, <rdkit.Chem.rdchem.Mol object at 0x7f5838dd8430>, <rdkit.Chem.rdchem.Mol object at 0x7f5838dda340>, <rdkit.Chem.rdchem.Mol object at 0x7f5838dd82e0>, '.', <rdkit.Chem.rdchem.Mol object at 0x7f5838dc78b0>, <rdkit.Chem.rdchem.Mol object at 0x7f5838dd84a0>, <rdkit.Chem.rdchem.Mol object at 0x7f5838dd8660>, <rdkit.Chem.rdchem.Mol object at 0x7f5838dd8190>, <rdkit.Chem.rdchem.Mol object at 0x7f5838dd8f20>, <rdkit.Chem.rdchem.Mol object at 0x7f5838dd8eb0>, <rdkit.Chem.rdchem.Mol object at 0x7f5838dd9bd0>, <rdkit.Chem.rdchem.Mol object at 0x7f5838dd93f0>]","[0, 2824, 2825, 2826, 2827, 2828, 2829, 2830, 1, 2831, 2832, 2833, 2834, 2835, 2836, 2837, 2838]"
PffT2-FTAZ-2DT,IEIC,-5.28,-3.37,-5.455,-3.8625,1.0,CB,6.0,_,90.0,7.2,7.18,0.998,59.0,"[<rdkit.Chem.rdchem.Mol object at 0x7f5838dda5e0>, <rdkit.Chem.rdchem.Mol object at 0x7f5838dd90e0>, <rdkit.Chem.rdchem.Mol object at 0x7f5838dd9770>, <rdkit.Chem.rdchem.Mol object at 0x7f5838dd9a80>, <rdkit.Chem.rdchem.Mol object at 0x7f5838dd8dd0>, <rdkit.Chem.rdchem.Mol object at 0x7f5838dd9af0>, <rdkit.Chem.rdchem.Mol object at 0x7f5838dd91c0>]","[<rdkit.Chem.rdchem.Mol object at 0x7f5838dd8c80>, <rdkit.Chem.rdchem.Mol object at 0x7f5838dd9e00>, <rdkit.Chem.rdchem.Mol object at 0x7f5838dda3b0>, <rdkit.Chem.rdchem.Mol object at 0x7f5838dd8b30>, <rdkit.Chem.rdchem.Mol object at 0x7f5838dd8890>, <rdkit.Chem.rdchem.Mol object at 0x7f5838de4200>, <rdkit.Chem.rdchem.Mol object at 0x7f5838ddbca0>]","[<rdkit.Chem.rdchem.Mol object at 0x7f5838dda5e0>, <rdkit.Chem.rdchem.Mol object at 0x7f5838dd90e0>, <rdkit.Chem.rdchem.Mol object at 0x7f5838dd9770>, <rdkit.Chem.rdchem.Mol object at 0x7f5838dd9a80>, <rdkit.Chem.rdchem.Mol object at 0x7f5838dd8dd0>, <rdkit.Chem.rdchem.Mol object at 0x7f5838dd9af0>, <rdkit.Chem.rdchem.Mol object at 0x7f5838dd91c0>, '.', <rdkit.Chem.rdchem.Mol object at 0x7f5838dd8c80>, <rdkit.Chem.rdchem.Mol object at 0x7f5838dd9e00>, <rdkit.Chem.rdchem.Mol object at 0x7f5838dda3b0>, <rdkit.Chem.rdchem.Mol object at 0x7f5838dd8b30>, <rdkit.Chem.rdchem.Mol object at 0x7f5838dd8890>, <rdkit.Chem.rdchem.Mol object at 0x7f5838de4200>, <rdkit.Chem.rdchem.Mol object at 0x7f5838ddbca0>]","[0, 0, 2853, 2854, 2855, 2856, 2857, 2858, 2859, 1, 2860, 2861, 2862, 2863, 2864, 2865, 2866]"
PBDB-ST,ITIC-SC6,-5.37,-3.59,-5.68,-3.91,1.0,DCB,8.0,CBA,110.0,7.27,7.24,0.9,58.0,"[<rdkit.Chem.rdchem.Mol object at 0x7f5838dd8e40>, <rdkit.Chem.rdchem.Mol object at 0x7f5838dd9a10>, <rdkit.Chem.rdchem.Mol object at 0x7f5838ddb8b0>, <rdkit.Chem.rdchem.Mol object at 0x7f5838de4120>, <rdkit.Chem.rdchem.Mol object at 0x7f5838ddab90>, <rdkit.Chem.rdchem.Mol object at 0x7f5838de47b0>, <rdkit.Chem.rdchem.Mol object at 0x7f5838de5310>]","[<rdkit.Chem.rdchem.Mol object at 0x7f5838ddbdf0>, <rdkit.Chem.rdchem.Mol object at 0x7f5838de4580>, <rdkit.Chem.rdchem.Mol object at 0x7f5838dd9150>, <rdkit.Chem.rdchem.Mol object at 0x7f5838ddb300>, <rdkit.Chem.rdchem.Mol object at 0x7f5838de4eb0>, <rdkit.Chem.rdchem.Mol object at 0x7f5838de46d0>]","[<rdkit.Chem.rdchem.Mol object at 0x7f5838dd8e40>, <rdkit.Chem.rdchem.Mol object at 0x7f5838dd9a10>, <rdkit.Chem.rdchem.Mol object at 0x7f5838ddb8b0>, <rdkit.Chem.rdchem.Mol object at 0x7f5838de4120>, <rdkit.Chem.rdchem.Mol object at 0x7f5838ddab90>, <rdkit.Chem.rdchem.Mol object at 0x7f5838de47b0>, <rdkit.Chem.rdchem.Mol object at 0x7f5838de5310>, '.', <rdkit.Chem.rdchem.Mol object at 0x7f5838ddbdf0>, <rdkit.Chem.rdchem.Mol object at 0x7f5838de4580>, <rdkit.Chem.rdchem.Mol object at 0x7f5838dd9150>, <rdkit.Chem.rdchem.Mol object at 0x7f5838ddb300>, <rdkit.Chem.rdchem.Mol object at 0x7f5838de4eb0>, <rdkit.Chem.rdchem.Mol object at 0x7f5838de46d0>]","[0, 0, 0, 2941, 2942, 2943, 2944, 2945, 2946, 2947, 1, 2948, 2949, 2950, 2951, 2952, 2953]"
PBDB-ST,ITIC-SC8,-5.37,-3.59,-5.7,-3.9,1.0,DCB,8.0,CBA,110.0,7.79,7.79,0.9,60.0,"[<rdkit.Chem.rdchem.Mol object at 0x7f5838ddace0>, <rdkit.Chem.rdchem.Mol object at 0x7f5838dda570>, <rdkit.Chem.rdchem.Mol object at 0x7f5838dda960>, <rdkit.Chem.rdchem.Mol object at 0x7f5838de4cf0>, <rdkit.Chem.rdchem.Mol object at 0x7f5838de4b30>, <rdkit.Chem.rdchem.Mol object at 0x7f5838de4660>, <rdkit.Chem.rdchem.Mol object at 0x7f5838de5af0>]","[<rdkit.Chem.rdchem.Mol object at 0x7f5838dd9ee0>, <rdkit.Chem.rdchem.Mol object at 0x7f5838de57e0>, <rdkit.Chem.rdchem.Mol object at 0x7f5838ddbae0>, <rdkit.Chem.rdchem.Mol object at 0x7f5838de5070>, <rdkit.Chem.rdchem.Mol object at 0x7f5838de4430>, <rdkit.Chem.rdchem.Mol object at 0x7f5838de4190>]","[<rdkit.Chem.rdchem.Mol object at 0x7f5838ddace0>, <rdkit.Chem.rdchem.Mol object at 0x7f5838dda570>, <rdkit.Chem.rdchem.Mol object at 0x7f5838dda960>, <rdkit.Chem.rdchem.Mol object at 0x7f5838de4cf0>, <rdkit.Chem.rdchem.Mol object at 0x7f5838de4b30>, <rdkit.Chem.rdchem.Mol object at 0x7f5838de4660>, <rdkit.Chem.rdchem.Mol object at 0x7f5838de5af0>, '.', <rdkit.Chem.rdchem.Mol object at 0x7f5838dd9ee0>, <rdkit.Chem.rdchem.Mol object at 0x7f5838de57e0>, <rdkit.Chem.rdchem.Mol object at 0x7f5838ddbae0>, <rdkit.Chem.rdchem.Mol object at 0x7f5838de5070>, <rdkit.Chem.rdchem.Mol object at 0x7f5838de4430>, <rdkit.Chem.rdchem.Mol object at 0x7f5838de4190>]","[0, 0, 0, 2954, 2955, 2956, 2957, 2958, 2959, 2960, 1, 2961, 2962, 2963, 2964, 2965, 2966]"
PBDB-ST,ITIC-SC2C6,-5.37,-3.59,-5.74,-3.86,1.0,DCB,8.0,CBA,110.0,9.16,9.02,0.92,64.0,"[<rdkit.Chem.rdchem.Mol object at 0x7f5838ddac00>, <rdkit.Chem.rdchem.Mol object at 0x7f5838de4f20>, <rdkit.Chem.rdchem.Mol object at 0x7f5838ddb680>, <rdkit.Chem.rdchem.Mol object at 0x7f5838de4970>, <rdkit.Chem.rdchem.Mol object at 0x7f5838de5c40>, <rdkit.Chem.rdchem.Mol object at 0x7f5838de4040>, <rdkit.Chem.rdchem.Mol object at 0x7f5838de6180>]","[<rdkit.Chem.rdchem.Mol object at 0x7f5838dd89e0>, <rdkit.Chem.rdchem.Mol object at 0x7f5838de5540>, <rdkit.Chem.rdchem.Mol object at 0x7f5838de5b60>, <rdkit.Chem.rdchem.Mol object at 0x7f5838de4510>, <rdkit.Chem.rdchem.Mol object at 0x7f5838de49e0>, <rdkit.Chem.rdchem.Mol object at 0x7f5838de5690>]","[<rdkit.Chem.rdchem.Mol object at 0x7f5838ddac00>, <rdkit.Chem.rdchem.Mol object at 0x7f5838de4f20>, <rdkit.Chem.rdchem.Mol object at 0x7f5838ddb680>, <rdkit.Chem.rdchem.Mol object at 0x7f5838de4970>, <rdkit.Chem.rdchem.Mol object at 0x7f5838de5c40>, <rdkit.Chem.rdchem.Mol object at 0x7f5838de4040>, <rdkit.Chem.rdchem.Mol object at 0x7f5838de6180>, '.', <rdkit.Chem.rdchem.Mol object at 0x7f5838dd89e0>, <rdkit.Chem.rdchem.Mol object at 0x7f5838de5540>, <rdkit.Chem.rdchem.Mol object at 0x7f5838de5b60>, <rdkit.Chem.rdchem.Mol object at 0x7f5838de4510>, <rdkit.Chem.rdchem.Mol object at 0x7f5838de49e0>, <rdkit.Chem.rdchem.Mol object at 0x7f5838de5690>]","[0, 0, 0, 2967, 2968, 2969, 2970, 2971, 2972, 2973, 1, 2974, 2975, 2976, 2977, 2978, 2979]"
PTB7-Th,ITIC-Th,-5.204782608695651,-3.5391891891891896,-5.673333333333334,-3.908888888888889,0.769,o-DCB,20.0,CN,25.0,8.7,8.67,0.8,68.0,"[<rdkit.Chem.rdchem.Mol object at 0x7f5838de58c0>, <rdkit.Chem.rdchem.Mol object at 0x7f5838de5150>, <rdkit.Chem.rdchem.Mol object at 0x7f5838de54d0>, <rdkit.Chem.rdchem.Mol object at 0x7f5838de5bd0>, <rdkit.Chem.rdchem.Mol object at 0x7f5838de6030>, <rdkit.Chem.rdchem.Mol object at 0x7f5838de5d90>, <rdkit.Chem.rdchem.Mol object at 0x7f5838de4d60>]","[<rdkit.Chem.rdchem.Mol object at 0x7f5838de5850>, <rdkit.Chem.rdchem.Mol object at 0x7f5838de4270>, <rdkit.Chem.rdchem.Mol object at 0x7f5838de40b0>, <rdkit.Chem.rdchem.Mol object at 0x7f5838de4f90>, <rdkit.Chem.rdchem.Mol object at 0x7f5838de5ee0>]","[<rdkit.Chem.rdchem.Mol object at 0x7f5838de58c0>, <rdkit.Chem.rdchem.Mol object at 0x7f5838de5150>, <rdkit.Chem.rdchem.Mol object at 0x7f5838de54d0>, <rdkit.Chem.rdchem.Mol object at 0x7f5838de5bd0>, <rdkit.Chem.rdchem.Mol object at 0x7f5838de6030>, <rdkit.Chem.rdchem.Mol object at 0x7f5838de5d90>, <rdkit.Chem.rdchem.Mol object at 0x7f5838de4d60>, '.', <rdkit.Chem.rdchem.Mol object at 0x7f5838de5850>, <rdkit.Chem.rdchem.Mol object at 0x7f5838de4270>, <rdkit.Chem.rdchem.Mol object at 0x7f5838de40b0>, <rdkit.Chem.rdchem.Mol object at 0x7f5838de4f90>, <rdkit.Chem.rdchem.Mol object at 0x7f5838de5ee0>]","[0, 0, 0, 0, 2980, 2981, 2982, 2983, 2984, 2985, 2986, 1, 2987, 2988, 2989, 2990, 2991]"