Donor,Acceptor,HOMO_D_eV,LUMO_D_eV,HOMO_A_eV,LUMO_A_eV,D_A_ratio_m_m,solvent,total_solids_conc_mg_mL,solvent_additive,annealing_temperature,PCE_percent,calc_PCE_percent,Voc_V,FF_percent,Donor_BRICS,Acceptor_BRICS,DA_pair_BRICS,DA_tokenized_BRICS
PTB7-Th,SFBRCN,-5.204782608695651,-3.5391891891891896,-5.93,-3.86,0.833,CB,22.0,DIO,25.0,9.9,9.93,0.9,64.0,"[<rdkit.Chem.rdchem.Mol object at 0x7f5838f46420>, <rdkit.Chem.rdchem.Mol object at 0x7f5838f46030>, <rdkit.Chem.rdchem.Mol object at 0x7f5838f45a10>, <rdkit.Chem.rdchem.Mol object at 0x7f5838f45d20>, <rdkit.Chem.rdchem.Mol object at 0x7f5838f46110>, <rdkit.Chem.rdchem.Mol object at 0x7f5838f45d90>, <rdkit.Chem.rdchem.Mol object at 0x7f5838f46b20>]","[<rdkit.Chem.rdchem.Mol object at 0x7f5838f466c0>, <rdkit.Chem.rdchem.Mol object at 0x7f5838f467a0>, <rdkit.Chem.rdchem.Mol object at 0x7f5838f45380>, <rdkit.Chem.rdchem.Mol object at 0x7f5838f46c00>, <rdkit.Chem.rdchem.Mol object at 0x7f5838f44f90>]","[<rdkit.Chem.rdchem.Mol object at 0x7f5838f46420>, <rdkit.Chem.rdchem.Mol object at 0x7f5838f46030>, <rdkit.Chem.rdchem.Mol object at 0x7f5838f45a10>, <rdkit.Chem.rdchem.Mol object at 0x7f5838f45d20>, <rdkit.Chem.rdchem.Mol object at 0x7f5838f46110>, <rdkit.Chem.rdchem.Mol object at 0x7f5838f45d90>, <rdkit.Chem.rdchem.Mol object at 0x7f5838f46b20>, '.', <rdkit.Chem.rdchem.Mol object at 0x7f5838f466c0>, <rdkit.Chem.rdchem.Mol object at 0x7f5838f467a0>, <rdkit.Chem.rdchem.Mol object at 0x7f5838f45380>, <rdkit.Chem.rdchem.Mol object at 0x7f5838f46c00>, <rdkit.Chem.rdchem.Mol object at 0x7f5838f44f90>]","[0, 0, 0, 0, 1195, 1196, 1197, 1198, 1199, 1200, 1201, 1, 1202, 1203, 1204, 1205, 1206]"
PBDB-T,ITCC,-5.297714285714285,-3.4170000000000003,-5.47,-3.76,1.0,CB,20.0,DIO,100.0,11.4,11.4,1.01,71.0,"[<rdkit.Chem.rdchem.Mol object at 0x7f5838f46650>, <rdkit.Chem.rdchem.Mol object at 0x7f5838f476f0>, <rdkit.Chem.rdchem.Mol object at 0x7f5838f47760>, <rdkit.Chem.rdchem.Mol object at 0x7f5838f46b90>, <rdkit.Chem.rdchem.Mol object at 0x7f5838f47840>]","[<rdkit.Chem.rdchem.Mol object at 0x7f5838f478b0>, <rdkit.Chem.rdchem.Mol object at 0x7f5838f47a70>, <rdkit.Chem.rdchem.Mol object at 0x7f5838f47ed0>, <rdkit.Chem.rdchem.Mol object at 0x7f5838f470d0>, <rdkit.Chem.rdchem.Mol object at 0x7f5838f46c70>]","[<rdkit.Chem.rdchem.Mol object at 0x7f5838f46650>, <rdkit.Chem.rdchem.Mol object at 0x7f5838f476f0>, <rdkit.Chem.rdchem.Mol object at 0x7f5838f47760>, <rdkit.Chem.rdchem.Mol object at 0x7f5838f46b90>, <rdkit.Chem.rdchem.Mol object at 0x7f5838f47840>, '.', <rdkit.Chem.rdchem.Mol object at 0x7f5838f478b0>, <rdkit.Chem.rdchem.Mol object at 0x7f5838f47a70>, <rdkit.Chem.rdchem.Mol object at 0x7f5838f47ed0>, <rdkit.Chem.rdchem.Mol object at 0x7f5838f470d0>, <rdkit.Chem.rdchem.Mol object at 0x7f5838f46c70>]","[0, 0, 0, 0, 0, 0, 1217, 1218, 1219, 1220, 1221, 1, 1222, 1223, 1224, 1225, 1226]"
PBDTTT-E-T,IEIC,-5.09,-3.48,-5.455,-3.8625,0.667,CB,25.0,DIO,100.0,4.9,4.95,0.9,47.0,"[<rdkit.Chem.rdchem.Mol object at 0x7f5838f47d10>, <rdkit.Chem.rdchem.Mol object at 0x7f5838f477d0>, <rdkit.Chem.rdchem.Mol object at 0x7f5838f46340>, <rdkit.Chem.rdchem.Mol object at 0x7f5838f475a0>, <rdkit.Chem.rdchem.Mol object at 0x7f5838f47920>, <rdkit.Chem.rdchem.Mol object at 0x7f5838f45770>, <rdkit.Chem.rdchem.Mol object at 0x7f5838f47d80>]","[<rdkit.Chem.rdchem.Mol object at 0x7f5838f46730>, <rdkit.Chem.rdchem.Mol object at 0x7f5838f46f80>, <rdkit.Chem.rdchem.Mol object at 0x7f5838f46500>, <rdkit.Chem.rdchem.Mol object at 0x7f5838f47680>, <rdkit.Chem.rdchem.Mol object at 0x7f5838f46ea0>, <rdkit.Chem.rdchem.Mol object at 0x7f5838f4daf0>, <rdkit.Chem.rdchem.Mol object at 0x7f5838f46ab0>]","[<rdkit.Chem.rdchem.Mol object at 0x7f5838f47d10>, <rdkit.Chem.rdchem.Mol object at 0x7f5838f477d0>, <rdkit.Chem.rdchem.Mol object at 0x7f5838f46340>, <rdkit.Chem.rdchem.Mol object at 0x7f5838f475a0>, <rdkit.Chem.rdchem.Mol object at 0x7f5838f47920>, <rdkit.Chem.rdchem.Mol object at 0x7f5838f45770>, <rdkit.Chem.rdchem.Mol object at 0x7f5838f47d80>, '.', <rdkit.Chem.rdchem.Mol object at 0x7f5838f46730>, <rdkit.Chem.rdchem.Mol object at 0x7f5838f46f80>, <rdkit.Chem.rdchem.Mol object at 0x7f5838f46500>, <rdkit.Chem.rdchem.Mol object at 0x7f5838f47680>, <rdkit.Chem.rdchem.Mol object at 0x7f5838f46ea0>, <rdkit.Chem.rdchem.Mol object at 0x7f5838f4daf0>, <rdkit.Chem.rdchem.Mol object at 0x7f5838f46ab0>]","[0, 0, 1227, 1228, 1229, 1230, 1231, 1232, 1233, 1, 1234, 1235, 1236, 1237, 1238, 1239, 1240]"
PBTT,IEICO,-5.19,-3.11,-5.32,-3.95,1.0,CB,22.0,DIO,100.0,9.5,9.44,0.86,61.3,"[<rdkit.Chem.rdchem.Mol object at 0x7f5838f47140>, <rdkit.Chem.rdchem.Mol object at 0x7f5838f46dc0>, <rdkit.Chem.rdchem.Mol object at 0x7f5838f47ca0>, <rdkit.Chem.rdchem.Mol object at 0x7f5838f46810>, <rdkit.Chem.rdchem.Mol object at 0x7f5838f4d2a0>, <rdkit.Chem.rdchem.Mol object at 0x7f5838f47290>, <rdkit.Chem.rdchem.Mol object at 0x7f5838f4d230>]","[<rdkit.Chem.rdchem.Mol object at 0x7f5838f46ff0>, <rdkit.Chem.rdchem.Mol object at 0x7f5838f46960>, <rdkit.Chem.rdchem.Mol object at 0x7f5838f4d150>, <rdkit.Chem.rdchem.Mol object at 0x7f5838f46a40>, <rdkit.Chem.rdchem.Mol object at 0x7f5838f47990>, <rdkit.Chem.rdchem.Mol object at 0x7f5838f4d7e0>, <rdkit.Chem.rdchem.Mol object at 0x7f5838f4cd60>, <rdkit.Chem.rdchem.Mol object at 0x7f5838f4d070>]","[<rdkit.Chem.rdchem.Mol object at 0x7f5838f47140>, <rdkit.Chem.rdchem.Mol object at 0x7f5838f46dc0>, <rdkit.Chem.rdchem.Mol object at 0x7f5838f47ca0>, <rdkit.Chem.rdchem.Mol object at 0x7f5838f46810>, <rdkit.Chem.rdchem.Mol object at 0x7f5838f4d2a0>, <rdkit.Chem.rdchem.Mol object at 0x7f5838f47290>, <rdkit.Chem.rdchem.Mol object at 0x7f5838f4d230>, '.', <rdkit.Chem.rdchem.Mol object at 0x7f5838f46ff0>, <rdkit.Chem.rdchem.Mol object at 0x7f5838f46960>, <rdkit.Chem.rdchem.Mol object at 0x7f5838f4d150>, <rdkit.Chem.rdchem.Mol object at 0x7f5838f46a40>, <rdkit.Chem.rdchem.Mol object at 0x7f5838f47990>, <rdkit.Chem.rdchem.Mol object at 0x7f5838f4d7e0>, <rdkit.Chem.rdchem.Mol object at 0x7f5838f4cd60>, <rdkit.Chem.rdchem.Mol object at 0x7f5838f4d070>]","[0, 1256, 1257, 1258, 1259, 1260, 1261, 1262, 1, 1263, 1264, 1265, 1266, 1267, 1268, 1269, 1270]"
PTB7-Th,IEICO,-5.204782608695651,-3.5391891891891896,-5.32,-3.95,1.0,CB,22.0,DIO,100.0,7.3,7.32,0.91,60.5,"[<rdkit.Chem.rdchem.Mol object at 0x7f5838f45fc0>, <rdkit.Chem.rdchem.Mol object at 0x7f5838f474c0>, <rdkit.Chem.rdchem.Mol object at 0x7f5838f4c200>, <rdkit.Chem.rdchem.Mol object at 0x7f5838f4cf90>, <rdkit.Chem.rdchem.Mol object at 0x7f5838f4c510>, <rdkit.Chem.rdchem.Mol object at 0x7f5838f4cc80>, <rdkit.Chem.rdchem.Mol object at 0x7f5838f4d5b0>]","[<rdkit.Chem.rdchem.Mol object at 0x7f5838f46880>, <rdkit.Chem.rdchem.Mol object at 0x7f5838f4cf20>, <rdkit.Chem.rdchem.Mol object at 0x7f5838f4cb30>, <rdkit.Chem.rdchem.Mol object at 0x7f5838f4cdd0>, <rdkit.Chem.rdchem.Mol object at 0x7f5838f4d000>, <rdkit.Chem.rdchem.Mol object at 0x7f5838f4db60>, <rdkit.Chem.rdchem.Mol object at 0x7f5838f4c5f0>, <rdkit.Chem.rdchem.Mol object at 0x7f5838f4c820>]","[<rdkit.Chem.rdchem.Mol object at 0x7f5838f45fc0>, <rdkit.Chem.rdchem.Mol object at 0x7f5838f474c0>, <rdkit.Chem.rdchem.Mol object at 0x7f5838f4c200>, <rdkit.Chem.rdchem.Mol object at 0x7f5838f4cf90>, <rdkit.Chem.rdchem.Mol object at 0x7f5838f4c510>, <rdkit.Chem.rdchem.Mol object at 0x7f5838f4cc80>, <rdkit.Chem.rdchem.Mol object at 0x7f5838f4d5b0>, '.', <rdkit.Chem.rdchem.Mol object at 0x7f5838f46880>, <rdkit.Chem.rdchem.Mol object at 0x7f5838f4cf20>, <rdkit.Chem.rdchem.Mol object at 0x7f5838f4cb30>, <rdkit.Chem.rdchem.Mol object at 0x7f5838f4cdd0>, <rdkit.Chem.rdchem.Mol object at 0x7f5838f4d000>, <rdkit.Chem.rdchem.Mol object at 0x7f5838f4db60>, <rdkit.Chem.rdchem.Mol object at 0x7f5838f4c5f0>, <rdkit.Chem.rdchem.Mol object at 0x7f5838f4c820>]","[0, 1271, 1272, 1273, 1274, 1275, 1276, 1277, 1, 1278, 1279, 1280, 1281, 1282, 1283, 1284, 1285]"
PBDB-T,NITI,-5.297714285714285,-3.4170000000000003,-5.68,-3.84,1.0,CB,10.0,_,25.0,9.49,12.86,0.86,84.0,"[<rdkit.Chem.rdchem.Mol object at 0x7f5838f4dee0>, <rdkit.Chem.rdchem.Mol object at 0x7f5838f4d540>, <rdkit.Chem.rdchem.Mol object at 0x7f5838f4d0e0>, <rdkit.Chem.rdchem.Mol object at 0x7f5838f4c4a0>, <rdkit.Chem.rdchem.Mol object at 0x7f5838f4e570>]","[<rdkit.Chem.rdchem.Mol object at 0x7f5838f4e7a0>, <rdkit.Chem.rdchem.Mol object at 0x7f5838f4c900>, <rdkit.Chem.rdchem.Mol object at 0x7f5838f4cc10>, <rdkit.Chem.rdchem.Mol object at 0x7f5838f4ce40>, <rdkit.Chem.rdchem.Mol object at 0x7f5838f4e030>, <rdkit.Chem.rdchem.Mol object at 0x7f5838f4d4d0>]","[<rdkit.Chem.rdchem.Mol object at 0x7f5838f4dee0>, <rdkit.Chem.rdchem.Mol object at 0x7f5838f4d540>, <rdkit.Chem.rdchem.Mol object at 0x7f5838f4d0e0>, <rdkit.Chem.rdchem.Mol object at 0x7f5838f4c4a0>, <rdkit.Chem.rdchem.Mol object at 0x7f5838f4e570>, '.', <rdkit.Chem.rdchem.Mol object at 0x7f5838f4e7a0>, <rdkit.Chem.rdchem.Mol object at 0x7f5838f4c900>, <rdkit.Chem.rdchem.Mol object at 0x7f5838f4cc10>, <rdkit.Chem.rdchem.Mol object at 0x7f5838f4ce40>, <rdkit.Chem.rdchem.Mol object at 0x7f5838f4e030>, <rdkit.Chem.rdchem.Mol object at 0x7f5838f4d4d0>]","[0, 0, 0, 0, 0, 1299, 1300, 1301, 1302, 1303, 1, 1304, 1305, 1306, 1307, 1308, 1309]"
PTB7-Th,IHIC,-5.204782608695651,-3.5391891891891896,-5.45,-3.93,0.667,DCB,20.0,CN,25.0,9.41,7.75,0.744,60.9,"[<rdkit.Chem.rdchem.Mol object at 0x7f5838f4e180>, <rdkit.Chem.rdchem.Mol object at 0x7f5838f4e6c0>, <rdkit.Chem.rdchem.Mol object at 0x7f5838f4c740>, <rdkit.Chem.rdchem.Mol object at 0x7f5838f4e5e0>, <rdkit.Chem.rdchem.Mol object at 0x7f5838f4c580>, <rdkit.Chem.rdchem.Mol object at 0x7f5838f4e110>, <rdkit.Chem.rdchem.Mol object at 0x7f5838f4d1c0>]","[<rdkit.Chem.rdchem.Mol object at 0x7f5838f4dbd0>, <rdkit.Chem.rdchem.Mol object at 0x7f5838f4c270>, <rdkit.Chem.rdchem.Mol object at 0x7f5838f4d700>, <rdkit.Chem.rdchem.Mol object at 0x7f5838f4d850>, <rdkit.Chem.rdchem.Mol object at 0x7f5838f4c040>]","[<rdkit.Chem.rdchem.Mol object at 0x7f5838f4e180>, <rdkit.Chem.rdchem.Mol object at 0x7f5838f4e6c0>, <rdkit.Chem.rdchem.Mol object at 0x7f5838f4c740>, <rdkit.Chem.rdchem.Mol object at 0x7f5838f4e5e0>, <rdkit.Chem.rdchem.Mol object at 0x7f5838f4c580>, <rdkit.Chem.rdchem.Mol object at 0x7f5838f4e110>, <rdkit.Chem.rdchem.Mol object at 0x7f5838f4d1c0>, '.', <rdkit.Chem.rdchem.Mol object at 0x7f5838f4dbd0>, <rdkit.Chem.rdchem.Mol object at 0x7f5838f4c270>, <rdkit.Chem.rdchem.Mol object at 0x7f5838f4d700>, <rdkit.Chem.rdchem.Mol object at 0x7f5838f4d850>, <rdkit.Chem.rdchem.Mol object at 0x7f5838f4c040>]","[0, 0, 0, 0, 1310, 1311, 1312, 1313, 1314, 1315, 1316, 1, 1317, 1318, 1319, 1320, 1321]"
PTB7-Th,DTPC-DFIC,-5.204782608695651,-3.5391891891891896,-5.31,-4.1,0.667,DCB,25.0,DIO,25.0,10.21,10.21,0.76,61.3,"[<rdkit.Chem.rdchem.Mol object at 0x7f5838f4f450>, <rdkit.Chem.rdchem.Mol object at 0x7f5838f4fd10>, <rdkit.Chem.rdchem.Mol object at 0x7f5838f4fb50>, <rdkit.Chem.rdchem.Mol object at 0x7f5838f4fed0>, <rdkit.Chem.rdchem.Mol object at 0x7f5838f4fbc0>, <rdkit.Chem.rdchem.Mol object at 0x7f5838f4fc30>, <rdkit.Chem.rdchem.Mol object at 0x7f5838f4eab0>]","[<rdkit.Chem.rdchem.Mol object at 0x7f5838f4f840>, <rdkit.Chem.rdchem.Mol object at 0x7f5838f4ff40>, <rdkit.Chem.rdchem.Mol object at 0x7f5838f4fdf0>, <rdkit.Chem.rdchem.Mol object at 0x7f5838f4fa70>, <rdkit.Chem.rdchem.Mol object at 0x7f5838f4fa00>, <rdkit.Chem.rdchem.Mol object at 0x7f5838d60ac0>]","[<rdkit.Chem.rdchem.Mol object at 0x7f5838f4f450>, <rdkit.Chem.rdchem.Mol object at 0x7f5838f4fd10>, <rdkit.Chem.rdchem.Mol object at 0x7f5838f4fb50>, <rdkit.Chem.rdchem.Mol object at 0x7f5838f4fed0>, <rdkit.Chem.rdchem.Mol object at 0x7f5838f4fbc0>, <rdkit.Chem.rdchem.Mol object at 0x7f5838f4fc30>, <rdkit.Chem.rdchem.Mol object at 0x7f5838f4eab0>, '.', <rdkit.Chem.rdchem.Mol object at 0x7f5838f4f840>, <rdkit.Chem.rdchem.Mol object at 0x7f5838f4ff40>, <rdkit.Chem.rdchem.Mol object at 0x7f5838f4fdf0>, <rdkit.Chem.rdchem.Mol object at 0x7f5838f4fa70>, <rdkit.Chem.rdchem.Mol object at 0x7f5838f4fa00>, <rdkit.Chem.rdchem.Mol object at 0x7f5838d60ac0>]","[0, 0, 0, 1376, 1377, 1378, 1379, 1380, 1381, 1382, 1, 1383, 1384, 1385, 1386, 1387, 1388]"
PBDB-T,DICTF,-5.297714285714285,-3.4170000000000003,-5.67,-3.79,0.833,CB,22.0,DIO,25.0,5.93,5.65,0.93,59.0,"[<rdkit.Chem.rdchem.Mol object at 0x7f5838f4eff0>, <rdkit.Chem.rdchem.Mol object at 0x7f5838f4fca0>, <rdkit.Chem.rdchem.Mol object at 0x7f5838f4e490>, <rdkit.Chem.rdchem.Mol object at 0x7f5838d607b0>, <rdkit.Chem.rdchem.Mol object at 0x7f5838d60dd0>]","[<rdkit.Chem.rdchem.Mol object at 0x7f5838f4ea40>, <rdkit.Chem.rdchem.Mol object at 0x7f5838f4f3e0>, <rdkit.Chem.rdchem.Mol object at 0x7f5838f4eb90>, <rdkit.Chem.rdchem.Mol object at 0x7f5838f4f920>, <rdkit.Chem.rdchem.Mol object at 0x7f5838f4f530>]","[<rdkit.Chem.rdchem.Mol object at 0x7f5838f4eff0>, <rdkit.Chem.rdchem.Mol object at 0x7f5838f4fca0>, <rdkit.Chem.rdchem.Mol object at 0x7f5838f4e490>, <rdkit.Chem.rdchem.Mol object at 0x7f5838d607b0>, <rdkit.Chem.rdchem.Mol object at 0x7f5838d60dd0>, '.', <rdkit.Chem.rdchem.Mol object at 0x7f5838f4ea40>, <rdkit.Chem.rdchem.Mol object at 0x7f5838f4f3e0>, <rdkit.Chem.rdchem.Mol object at 0x7f5838f4eb90>, <rdkit.Chem.rdchem.Mol object at 0x7f5838f4f920>, <rdkit.Chem.rdchem.Mol object at 0x7f5838f4f530>]","[0, 0, 0, 0, 0, 0, 1389, 1390, 1391, 1392, 1393, 1, 1394, 1395, 1396, 1397, 1398]"
PBDB-T,FDICTF,-5.297714285714285,-3.4170000000000003,-5.43,-3.71,0.833,CB,22.0,DIO,25.0,10.06,9.81,0.94,66.0,"[<rdkit.Chem.rdchem.Mol object at 0x7f5838f4f990>, <rdkit.Chem.rdchem.Mol object at 0x7f5838d61000>, <rdkit.Chem.rdchem.Mol object at 0x7f5838d602e0>, <rdkit.Chem.rdchem.Mol object at 0x7f5838d609e0>, <rdkit.Chem.rdchem.Mol object at 0x7f5838d61310>]","[<rdkit.Chem.rdchem.Mol object at 0x7f5838f4dd90>, <rdkit.Chem.rdchem.Mol object at 0x7f5838d61620>, <rdkit.Chem.rdchem.Mol object at 0x7f5838f4de70>, <rdkit.Chem.rdchem.Mol object at 0x7f5838f4f220>]","[<rdkit.Chem.rdchem.Mol object at 0x7f5838f4f990>, <rdkit.Chem.rdchem.Mol object at 0x7f5838d61000>, <rdkit.Chem.rdchem.Mol object at 0x7f5838d602e0>, <rdkit.Chem.rdchem.Mol object at 0x7f5838d609e0>, <rdkit.Chem.rdchem.Mol object at 0x7f5838d61310>, '.', <rdkit.Chem.rdchem.Mol object at 0x7f5838f4dd90>, <rdkit.Chem.rdchem.Mol object at 0x7f5838d61620>, <rdkit.Chem.rdchem.Mol object at 0x7f5838f4de70>, <rdkit.Chem.rdchem.Mol object at 0x7f5838f4f220>]","[0, 0, 0, 0, 0, 0, 0, 1399, 1400, 1401, 1402, 1403, 1, 1404, 1405, 1406, 1407]"
P_dFBT-DTS,MPU1,-5.31,-3.33,-5.81,-3.99,1.0,CF,16.0,DIO,40.0,4.17,4.17,1.04,48.0,"[<rdkit.Chem.rdchem.Mol object at 0x7f5838f4fe60>, <rdkit.Chem.rdchem.Mol object at 0x7f5838d60200>, <rdkit.Chem.rdchem.Mol object at 0x7f5838d60d60>, <rdkit.Chem.rdchem.Mol object at 0x7f5838d61150>, <rdkit.Chem.rdchem.Mol object at 0x7f5838d60f90>]","[<rdkit.Chem.rdchem.Mol object at 0x7f5838d60120>, <rdkit.Chem.rdchem.Mol object at 0x7f5838d60b30>, <rdkit.Chem.rdchem.Mol object at 0x7f5838d60e40>, <rdkit.Chem.rdchem.Mol object at 0x7f5838d605f0>, <rdkit.Chem.rdchem.Mol object at 0x7f5838d60040>, <rdkit.Chem.rdchem.Mol object at 0x7f5838d60f20>]","[<rdkit.Chem.rdchem.Mol object at 0x7f5838f4fe60>, <rdkit.Chem.rdchem.Mol object at 0x7f5838d60200>, <rdkit.Chem.rdchem.Mol object at 0x7f5838d60d60>, <rdkit.Chem.rdchem.Mol object at 0x7f5838d61150>, <rdkit.Chem.rdchem.Mol object at 0x7f5838d60f90>, '.', <rdkit.Chem.rdchem.Mol object at 0x7f5838d60120>, <rdkit.Chem.rdchem.Mol object at 0x7f5838d60b30>, <rdkit.Chem.rdchem.Mol object at 0x7f5838d60e40>, <rdkit.Chem.rdchem.Mol object at 0x7f5838d605f0>, <rdkit.Chem.rdchem.Mol object at 0x7f5838d60040>, <rdkit.Chem.rdchem.Mol object at 0x7f5838d60f20>]","[0, 0, 0, 0, 0, 1418, 1419, 1420, 1421, 1422, 1, 1423, 1424, 1425, 1426, 1427, 1428]"
PBDB-T,IDT-BC6,-5.297714285714285,-3.4170000000000003,-5.55,-3.83,1.0,o-DCB,8.0,_,25.0,2.3,2.28,0.92,44.0,"[<rdkit.Chem.rdchem.Mol object at 0x7f5838f4fae0>, <rdkit.Chem.rdchem.Mol object at 0x7f5838d615b0>, <rdkit.Chem.rdchem.Mol object at 0x7f5838d60660>, <rdkit.Chem.rdchem.Mol object at 0x7f5838d60900>, <rdkit.Chem.rdchem.Mol object at 0x7f5838d62180>]","[<rdkit.Chem.rdchem.Mol object at 0x7f5838d62490>, <rdkit.Chem.rdchem.Mol object at 0x7f5838d617e0>, <rdkit.Chem.rdchem.Mol object at 0x7f5838d618c0>, <rdkit.Chem.rdchem.Mol object at 0x7f5838d61b60>, <rdkit.Chem.rdchem.Mol object at 0x7f5838d79770>, <rdkit.Chem.rdchem.Mol object at 0x7f5838d795b0>]","[<rdkit.Chem.rdchem.Mol object at 0x7f5838f4fae0>, <rdkit.Chem.rdchem.Mol object at 0x7f5838d615b0>, <rdkit.Chem.rdchem.Mol object at 0x7f5838d60660>, <rdkit.Chem.rdchem.Mol object at 0x7f5838d60900>, <rdkit.Chem.rdchem.Mol object at 0x7f5838d62180>, '.', <rdkit.Chem.rdchem.Mol object at 0x7f5838d62490>, <rdkit.Chem.rdchem.Mol object at 0x7f5838d617e0>, <rdkit.Chem.rdchem.Mol object at 0x7f5838d618c0>, <rdkit.Chem.rdchem.Mol object at 0x7f5838d61b60>, <rdkit.Chem.rdchem.Mol object at 0x7f5838d79770>, <rdkit.Chem.rdchem.Mol object at 0x7f5838d795b0>]","[0, 0, 0, 0, 0, 1429, 1430, 1431, 1432, 1433, 1, 1434, 1435, 1436, 1437, 1438, 1439]"
PBDB-T,IDT-BOC6,-5.297714285714285,-3.4170000000000003,-5.51,-3.78,1.0,o-DCB,8.0,DIO,25.0,9.6,9.56,1.01,54.0,"[<rdkit.Chem.rdchem.Mol object at 0x7f5838f4d620>, <rdkit.Chem.rdchem.Mol object at 0x7f5838d63a70>, <rdkit.Chem.rdchem.Mol object at 0x7f5838d633e0>, <rdkit.Chem.rdchem.Mol object at 0x7f5838d636f0>, <rdkit.Chem.rdchem.Mol object at 0x7f5838d62b90>]","[<rdkit.Chem.rdchem.Mol object at 0x7f5838d630d0>, <rdkit.Chem.rdchem.Mol object at 0x7f5838d63300>, <rdkit.Chem.rdchem.Mol object at 0x7f5838d63060>, <rdkit.Chem.rdchem.Mol object at 0x7f5838d63d10>, <rdkit.Chem.rdchem.Mol object at 0x7f5838d62730>, <rdkit.Chem.rdchem.Mol object at 0x7f5838d62570>, <rdkit.Chem.rdchem.Mol object at 0x7f5838d61460>, <rdkit.Chem.rdchem.Mol object at 0x7f5838d61070>]","[<rdkit.Chem.rdchem.Mol object at 0x7f5838f4d620>, <rdkit.Chem.rdchem.Mol object at 0x7f5838d63a70>, <rdkit.Chem.rdchem.Mol object at 0x7f5838d633e0>, <rdkit.Chem.rdchem.Mol object at 0x7f5838d636f0>, <rdkit.Chem.rdchem.Mol object at 0x7f5838d62b90>, '.', <rdkit.Chem.rdchem.Mol object at 0x7f5838d630d0>, <rdkit.Chem.rdchem.Mol object at 0x7f5838d63300>, <rdkit.Chem.rdchem.Mol object at 0x7f5838d63060>, <rdkit.Chem.rdchem.Mol object at 0x7f5838d63d10>, <rdkit.Chem.rdchem.Mol object at 0x7f5838d62730>, <rdkit.Chem.rdchem.Mol object at 0x7f5838d62570>, <rdkit.Chem.rdchem.Mol object at 0x7f5838d61460>, <rdkit.Chem.rdchem.Mol object at 0x7f5838d61070>]","[0, 0, 0, 1440, 1441, 1442, 1443, 1444, 1, 1445, 1446, 1447, 1448, 1449, 1450, 1451, 1452]"
PTB7-Th,FOIC,-5.204782608695651,-3.5391891891891896,-5.36,-3.92,0.667,CF,10.0,_,25.0,12.0,11.97,0.743,67.1,"[<rdkit.Chem.rdchem.Mol object at 0x7f5838d61930>, <rdkit.Chem.rdchem.Mol object at 0x7f5838d62ea0>, <rdkit.Chem.rdchem.Mol object at 0x7f5838d63df0>, <rdkit.Chem.rdchem.Mol object at 0x7f5838d63920>, <rdkit.Chem.rdchem.Mol object at 0x7f5838d61f50>, <rdkit.Chem.rdchem.Mol object at 0x7f5838d635a0>, <rdkit.Chem.rdchem.Mol object at 0x7f5838d62ff0>]","[<rdkit.Chem.rdchem.Mol object at 0x7f5838d60c80>, <rdkit.Chem.rdchem.Mol object at 0x7f5838d63a00>, <rdkit.Chem.rdchem.Mol object at 0x7f5838d62420>, <rdkit.Chem.rdchem.Mol object at 0x7f5838d629d0>, <rdkit.Chem.rdchem.Mol object at 0x7f5838d63ae0>]","[<rdkit.Chem.rdchem.Mol object at 0x7f5838d61930>, <rdkit.Chem.rdchem.Mol object at 0x7f5838d62ea0>, <rdkit.Chem.rdchem.Mol object at 0x7f5838d63df0>, <rdkit.Chem.rdchem.Mol object at 0x7f5838d63920>, <rdkit.Chem.rdchem.Mol object at 0x7f5838d61f50>, <rdkit.Chem.rdchem.Mol object at 0x7f5838d635a0>, <rdkit.Chem.rdchem.Mol object at 0x7f5838d62ff0>, '.', <rdkit.Chem.rdchem.Mol object at 0x7f5838d60c80>, <rdkit.Chem.rdchem.Mol object at 0x7f5838d63a00>, <rdkit.Chem.rdchem.Mol object at 0x7f5838d62420>, <rdkit.Chem.rdchem.Mol object at 0x7f5838d629d0>, <rdkit.Chem.rdchem.Mol object at 0x7f5838d63ae0>]","[0, 0, 0, 0, 1465, 1466, 1467, 1468, 1469, 1470, 1471, 1, 1472, 1473, 1474, 1475, 1476]"