Donor,Acceptor,HOMO_D_eV,LUMO_D_eV,HOMO_A_eV,LUMO_A_eV,D_A_ratio_m_m,solvent,total_solids_conc_mg_mL,solvent_additive,annealing_temperature,PCE_percent,calc_PCE_percent,Voc_V,FF_percent,Donor_BRICS,Acceptor_BRICS,DA_pair_BRICS,DA_tokenized_BRICS
PFBDB-T,C8-ITIC,-5.47,-3.46,-5.63,-3.91,0.8,CB,20.0,_,25.0,12.5,12.57,0.93,69.0,"['[8*]C(CC)CCCCCC', '[14*]c1cc(F)c(C)s1', '[14*]c1ccc([14*])s1', '[14*]c1sc([14*])c2c1C(=O)c1c([14*])sc([14*])c1C2=O', '[14*]c1cc(F)c([14*])s1', '[14*]c1cc2c([16*])c3sc(C)cc3c([16*])c2s1']","['[7*]C(C#N)C#N', '[7*]C1C(=O)c2ccccc2C1[7*]', '[7*]C[8*]', '[8*]CCCCCC', '[14*]c1cc2c(s1)-c1sc3cc4c5c(sc4cc3c1C2(c1ccc([16*])cc1)c1ccc([16*])cc1)-c1sc([14*])cc1C5(c1ccc([16*])cc1)c1ccc([16*])cc1']","['[8*]C(CC)CCCCCC', '[14*]c1cc(F)c(C)s1', '[14*]c1ccc([14*])s1', '[14*]c1sc([14*])c2c1C(=O)c1c([14*])sc([14*])c1C2=O', '[14*]c1cc(F)c([14*])s1', '[14*]c1cc2c([16*])c3sc(C)cc3c([16*])c2s1', '.', '[7*]C(C#N)C#N', '[7*]C1C(=O)c2ccccc2C1[7*]', '[7*]C[8*]', '[8*]CCCCCC', '[14*]c1cc2c(s1)-c1sc3cc4c5c(sc4cc3c1C2(c1ccc([16*])cc1)c1ccc([16*])cc1)-c1sc([14*])cc1C5(c1ccc([16*])cc1)c1ccc([16*])cc1']","[0, 0, 0, 0, 0, 85, 212, 7, 30, 24, 9, 1, 10, 11, 12, 13, 65]"
P_TBTT-BTT,ICz-Rd2,-5.15,-3.58,-5.59,-3.88,1.0,CF,15.0,_,40.0,7.88,7.88,1.04,54.0,"['[8*]CCCCCCCC', '[14*]c1ccc([14*])s1', '[14*]c1ccc(C)s1', '[16*]c1ccc([16*])c2nsnc12', '[14*]c1cc2c(s1)c1sc(C)cc1c1c([14*])sc([14*])c21']","['[8*]CC', '[7*]C1SC(=S)N([10*])C1=O', '[8*]CC(CC)CCCC', '[7*]C[8*]', '[16*]c1ccc([16*])c2nsnc12', '[9*]n1c2cc([16*])ccc2c2cc3c(cc21)c1ccc([16*])cc1n3[9*]']","['[8*]CCCCCCCC', '[14*]c1ccc([14*])s1', '[14*]c1ccc(C)s1', '[16*]c1ccc([16*])c2nsnc12', '[14*]c1cc2c(s1)c1sc(C)cc1c1c([14*])sc([14*])c21', '.', '[8*]CC', '[7*]C1SC(=S)N([10*])C1=O', '[8*]CC(CC)CCCC', '[7*]C[8*]', '[16*]c1ccc([16*])c2nsnc12', '[9*]n1c2cc([16*])ccc2c2cc3c(cc21)c1ccc([16*])cc1n3[9*]']","[0, 0, 0, 0, 0, 21, 7, 6, 127, 213, 1, 22, 76, 5, 12, 127, 214]"
P_TBTT-BTT,ICz-RdCN2,-5.15,-3.58,-5.58,-3.98,1.0,CF,15.0,_,40.0,9.76,9.76,1.01,62.0,"['[8*]CCCCCCCC', '[14*]c1ccc([14*])s1', '[14*]c1ccc(C)s1', '[16*]c1ccc([16*])c2nsnc12', '[14*]c1cc2c(s1)c1sc(C)cc1c1c([14*])sc([14*])c21']","['[8*]CC(CC)CCCC', '[8*]CC', '[9*]n1c(=C(C#N)C#N)s/c(=C\\c2ccc([16*])c3nsnc23)c1=O', '[9*]n1c2cc([16*])ccc2c2cc3c(cc21)c1ccc([16*])cc1n3[9*]']","['[8*]CCCCCCCC', '[14*]c1ccc([14*])s1', '[14*]c1ccc(C)s1', '[16*]c1ccc([16*])c2nsnc12', '[14*]c1cc2c(s1)c1sc(C)cc1c1c([14*])sc([14*])c21', '.', '[8*]CC(CC)CCCC', '[8*]CC', '[9*]n1c(=C(C#N)C#N)s/c(=C\\c2ccc([16*])c3nsnc23)c1=O', '[9*]n1c2cc([16*])ccc2c2cc3c(cc21)c1ccc([16*])cc1n3[9*]']","[0, 0, 0, 0, 0, 0, 0, 21, 7, 6, 127, 213, 1, 5, 22, 94, 214]"
PBZ,IT-4F,-5.18,-3.22,-5.66875,-4.060416666666667,1.0,Toluene,20.0,PN,25.0,6.4,6.45,0.6,63.2,"['[8*]CC(CCCCCC)CCCCCCCC', '[8*]CC(CC)CCCC', '[14*]c1ccc([14*])s1', '[14*]c1ccc(C)s1', '[9*]n1nc2c([16*])c(F)c(F)c([16*])c2n1', '[14*]c1cc2c([16*])c3sc(C)cc3c([16*])c2s1']","['[7*]C(C#N)C#N', '[7*]C1C(=O)c2cc(F)c(F)cc2C1[7*]', '[7*]C[8*]', '[8*]CCCCCC', '[14*]c1cc2sc3c(c2s1)C(c1ccc([16*])cc1)(c1ccc([16*])cc1)c1cc2c(cc1-3)C(c1ccc([16*])cc1)(c1ccc([16*])cc1)c1c-2sc2cc([14*])sc12']","['[8*]CC(CCCCCC)CCCCCCCC', '[8*]CC(CC)CCCC', '[14*]c1ccc([14*])s1', '[14*]c1ccc(C)s1', '[9*]n1nc2c([16*])c(F)c(F)c([16*])c2n1', '[14*]c1cc2c([16*])c3sc(C)cc3c([16*])c2s1', '.', '[7*]C(C#N)C#N', '[7*]C1C(=O)c2cc(F)c(F)cc2C1[7*]', '[7*]C[8*]', '[8*]CCCCCC', '[14*]c1cc2sc3c(c2s1)C(c1ccc([16*])cc1)(c1ccc([16*])cc1)c1cc2c(cc1-3)C(c1ccc([16*])cc1)(c1ccc([16*])cc1)c1c-2sc2cc([14*])sc12']","[0, 0, 0, 0, 0, 17, 5, 7, 6, 19, 9, 1, 10, 42, 12, 13, 15]"
PBZ-Cl,IT-4F,-5.39,-3.41,-5.66875,-4.060416666666667,1.0,Toluene,20.0,PN,25.0,9.7,9.67,0.8,68.3,"['[8*]CC(CCCCCC)CCCCCCCC', '[8*]CC(CC)CCCC', '[14*]c1cc(Cl)c([14*])s1', '[14*]c1ccc(C)s1', '[14*]c1ccc([14*])s1', '[9*]n1nc2c([16*])c(F)c(F)c([16*])c2n1', '[14*]c1cc2c([16*])c3sc(C)cc3c([16*])c2s1']","['[7*]C(C#N)C#N', '[7*]C1C(=O)c2cc(F)c(F)cc2C1[7*]', '[7*]C[8*]', '[8*]CCCCCC', '[14*]c1cc2sc3c(c2s1)C(c1ccc([16*])cc1)(c1ccc([16*])cc1)c1cc2c(cc1-3)C(c1ccc([16*])cc1)(c1ccc([16*])cc1)c1c-2sc2cc([14*])sc12']","['[8*]CC(CCCCCC)CCCCCCCC', '[8*]CC(CC)CCCC', '[14*]c1cc(Cl)c([14*])s1', '[14*]c1ccc(C)s1', '[14*]c1ccc([14*])s1', '[9*]n1nc2c([16*])c(F)c(F)c([16*])c2n1', '[14*]c1cc2c([16*])c3sc(C)cc3c([16*])c2s1', '.', '[7*]C(C#N)C#N', '[7*]C1C(=O)c2cc(F)c(F)cc2C1[7*]', '[7*]C[8*]', '[8*]CCCCCC', '[14*]c1cc2sc3c(c2s1)C(c1ccc([16*])cc1)(c1ccc([16*])cc1)c1cc2c(cc1-3)C(c1ccc([16*])cc1)(c1ccc([16*])cc1)c1c-2sc2cc([14*])sc12']","[0, 0, 0, 0, 17, 5, 192, 6, 7, 19, 9, 1, 10, 42, 12, 13, 15]"
PBZ-ClSi,IT-4F,-5.56,-3.5,-5.66875,-4.060416666666667,1.0,Toluene,20.0,PN,25.0,12.8,12.77,0.93,71.5,"['[8*]CC(CCCCCC)CCCCCCCC', '[14*]c1ccc(C)s1', '[14*]c1cc(Cl)c([Si](CCC)(CCC)CCC)s1', '[14*]c1ccc([14*])s1', '[9*]n1nc2c([16*])c(F)c(F)c([16*])c2n1', '[14*]c1cc2c([16*])c3sc(C)cc3c([16*])c2s1']","['[7*]C(C#N)C#N', '[7*]C1C(=O)c2cc(F)c(F)cc2C1[7*]', '[7*]C[8*]', '[8*]CCCCCC', '[14*]c1cc2sc3c(c2s1)C(c1ccc([16*])cc1)(c1ccc([16*])cc1)c1cc2c(cc1-3)C(c1ccc([16*])cc1)(c1ccc([16*])cc1)c1c-2sc2cc([14*])sc12']","['[8*]CC(CCCCCC)CCCCCCCC', '[14*]c1ccc(C)s1', '[14*]c1cc(Cl)c([Si](CCC)(CCC)CCC)s1', '[14*]c1ccc([14*])s1', '[9*]n1nc2c([16*])c(F)c(F)c([16*])c2n1', '[14*]c1cc2c([16*])c3sc(C)cc3c([16*])c2s1', '.', '[7*]C(C#N)C#N', '[7*]C1C(=O)c2cc(F)c(F)cc2C1[7*]', '[7*]C[8*]', '[8*]CCCCCC', '[14*]c1cc2sc3c(c2s1)C(c1ccc([16*])cc1)(c1ccc([16*])cc1)c1cc2c(cc1-3)C(c1ccc([16*])cc1)(c1ccc([16*])cc1)c1c-2sc2cc([14*])sc12']","[0, 0, 0, 0, 0, 17, 6, 215, 7, 19, 9, 1, 10, 42, 12, 13, 15]"
PT2,ITIC,-5.35,-3.58,-5.574146341463415,-3.915,0.667,CB,20.0,_,25.0,9.0,8.78,0.84,64.0,"['[8*]CCCCCCCC', '[8*]CC(CC)CCCC', '[14*]c1ccc(C)s1', '[14*]c1ccc([14*])s1', '[14*]c1sc([14*])c2c1C(=O)c1c([14*])sc([14*])c1C2=O', '[14*]c1cc2c([16*])c3sc(C)cc3c([16*])c2s1']","['[7*]C(C#N)C#N', '[7*]C1C(=O)c2ccccc2C1[7*]', '[7*]C[8*]', '[8*]CCCCCC', '[14*]c1cc2sc3c(c2s1)C(c1ccc([16*])cc1)(c1ccc([16*])cc1)c1cc2c(cc1-3)C(c1ccc([16*])cc1)(c1ccc([16*])cc1)c1c-2sc2cc([14*])sc12']","['[8*]CCCCCCCC', '[8*]CC(CC)CCCC', '[14*]c1ccc(C)s1', '[14*]c1ccc([14*])s1', '[14*]c1sc([14*])c2c1C(=O)c1c([14*])sc([14*])c1C2=O', '[14*]c1cc2c([16*])c3sc(C)cc3c([16*])c2s1', '.', '[7*]C(C#N)C#N', '[7*]C1C(=O)c2ccccc2C1[7*]', '[7*]C[8*]', '[8*]CCCCCC', '[14*]c1cc2sc3c(c2s1)C(c1ccc([16*])cc1)(c1ccc([16*])cc1)c1cc2c(cc1-3)C(c1ccc([16*])cc1)(c1ccc([16*])cc1)c1c-2sc2cc([14*])sc12']","[0, 0, 0, 0, 0, 21, 5, 6, 7, 30, 9, 1, 10, 11, 12, 13, 15]"
PT3,ITIC,-5.37,-3.54,-5.574146341463415,-3.915,0.667,CB,20.0,_,25.0,9.21,9.29,0.88,68.0,"['[8*]CCCCCCCC', '[8*]CC(CC)CCCC', '[8*]CCCCCC', '[14*]c1cc2sc(C)c([16*])c2s1', '[14*]c1ccc([14*])s1', '[14*]c1sc([14*])c2c1C(=O)c1c([14*])sc([14*])c1C2=O', '[14*]c1cc2sc([14*])c([16*])c2s1', '[14*]c1cc2c([16*])c3sc(C)cc3c([16*])c2s1']","['[7*]C(C#N)C#N', '[7*]C1C(=O)c2ccccc2C1[7*]', '[7*]C[8*]', '[8*]CCCCCC', '[14*]c1cc2sc3c(c2s1)C(c1ccc([16*])cc1)(c1ccc([16*])cc1)c1cc2c(cc1-3)C(c1ccc([16*])cc1)(c1ccc([16*])cc1)c1c-2sc2cc([14*])sc12']","['[8*]CCCCCCCC', '[8*]CC(CC)CCCC', '[8*]CCCCCC', '[14*]c1cc2sc(C)c([16*])c2s1', '[14*]c1ccc([14*])s1', '[14*]c1sc([14*])c2c1C(=O)c1c([14*])sc([14*])c1C2=O', '[14*]c1cc2sc([14*])c([16*])c2s1', '[14*]c1cc2c([16*])c3sc(C)cc3c([16*])c2s1', '.', '[7*]C(C#N)C#N', '[7*]C1C(=O)c2ccccc2C1[7*]', '[7*]C[8*]', '[8*]CCCCCC', '[14*]c1cc2sc3c(c2s1)C(c1ccc([16*])cc1)(c1ccc([16*])cc1)c1cc2c(cc1-3)C(c1ccc([16*])cc1)(c1ccc([16*])cc1)c1c-2sc2cc([14*])sc12']","[0, 0, 0, 21, 5, 13, 176, 7, 30, 178, 9, 1, 10, 11, 12, 13, 15]"
PBDB-T,DF-TCIC,-5.297714285714285,-3.4170000000000003,-5.37,-3.76,0.833,CF,15.0,CN,140.0,8.23,8.18,0.86,58.0,"['[8*]CC(CC)CCCC', '[14*]c1ccc(C)s1', '[14*]c1ccc([14*])s1', '[14*]c1sc([14*])c2c1C(=O)c1c([14*])sc([14*])c1C2=O', '[14*]c1cc2c([16*])c3sc(C)cc3c([16*])c2s1']","['[7*]C(C#N)C#N', '[7*]C1C(=O)c2ccccc2C1[7*]', '[7*]C[8*]', '[14*]c1cc2c(s1)-c1sc([14*])cc1C2(CC(CC)CCCC)CC(CC)CCCC', '[14*]c1sc([14*])c(F)c1F']","['[8*]CC(CC)CCCC', '[14*]c1ccc(C)s1', '[14*]c1ccc([14*])s1', '[14*]c1sc([14*])c2c1C(=O)c1c([14*])sc([14*])c1C2=O', '[14*]c1cc2c([16*])c3sc(C)cc3c([16*])c2s1', '.', '[7*]C(C#N)C#N', '[7*]C1C(=O)c2ccccc2C1[7*]', '[7*]C[8*]', '[14*]c1cc2c(s1)-c1sc([14*])cc1C2(CC(CC)CCCC)CC(CC)CCCC', '[14*]c1sc([14*])c(F)c1F']","[0, 0, 0, 0, 0, 0, 5, 6, 7, 30, 9, 1, 10, 11, 12, 167, 75]"
BO2FC8,m-ITIC-OR-4Cl,-5.5,-3.6,-5.78,-4.05,0.667,CB,15.0,_,150.0,11.0,10.61,0.83,63.3,"['[4*]CCCCCCCC', '[3*]O[3*]', '[8*]CC(CC)CCCC', '[14*]c1cc(F)c([14*])s1', '[14*]c1ccc(C)s1', '[14*]c1ccc([14*])s1', '[16*]c1c([16*])c([16*])c2nonc2c1[16*]', '[14*]c1cc2c([16*])c3sc(C)cc3c([16*])c2s1']","['[4*]CCCCCC', '[3*]O[3*]', '[7*]C(C#N)C#N', '[7*]C1C(=O)c2cc(Cl)c(Cl)cc2C1[7*]', '[7*]C[8*]', '[14*]c1cc2sc3c(c2s1)C(c1cccc([16*])c1)(c1cccc([16*])c1)c1cc2c(cc1-3)C(c1cccc([16*])c1)(c1cccc([16*])c1)c1c-2sc2cc([14*])sc12']","['[4*]CCCCCCCC', '[3*]O[3*]', '[8*]CC(CC)CCCC', '[14*]c1cc(F)c([14*])s1', '[14*]c1ccc(C)s1', '[14*]c1ccc([14*])s1', '[16*]c1c([16*])c([16*])c2nonc2c1[16*]', '[14*]c1cc2c([16*])c3sc(C)cc3c([16*])c2s1', '.', '[4*]CCCCCC', '[3*]O[3*]', '[7*]C(C#N)C#N', '[7*]C1C(=O)c2cc(Cl)c(Cl)cc2C1[7*]', '[7*]C[8*]', '[14*]c1cc2sc3c(c2s1)C(c1cccc([16*])c1)(c1cccc([16*])c1)c1cc2c(cc1-3)C(c1cccc([16*])c1)(c1cccc([16*])c1)c1c-2sc2cc([14*])sc12']","[0, 0, 51, 2, 5, 24, 6, 7, 217, 9, 1, 97, 2, 10, 41, 12, 48]"
BO2FEH,m-ITIC-OR-4Cl,-5.59,-3.59,-5.78,-4.05,0.667,CB,15.0,_,150.0,6.4,6.15,0.88,48.5,"['[4*]CC(CC)CCCC', '[3*]O[3*]', '[8*]CC(CC)CCCC', '[14*]c1cc(F)c([14*])s1', '[14*]c1ccc(C)s1', '[14*]c1ccc([14*])s1', '[16*]c1c([16*])c([16*])c2nonc2c1[16*]', '[14*]c1cc2c([16*])c3sc(C)cc3c([16*])c2s1']","['[4*]CCCCCC', '[3*]O[3*]', '[7*]C(C#N)C#N', '[7*]C1C(=O)c2cc(Cl)c(Cl)cc2C1[7*]', '[7*]C[8*]', '[14*]c1cc2sc3c(c2s1)C(c1cccc([16*])c1)(c1cccc([16*])c1)c1cc2c(cc1-3)C(c1cccc([16*])c1)(c1cccc([16*])c1)c1c-2sc2cc([14*])sc12']","['[4*]CC(CC)CCCC', '[3*]O[3*]', '[8*]CC(CC)CCCC', '[14*]c1cc(F)c([14*])s1', '[14*]c1ccc(C)s1', '[14*]c1ccc([14*])s1', '[16*]c1c([16*])c([16*])c2nonc2c1[16*]', '[14*]c1cc2c([16*])c3sc(C)cc3c([16*])c2s1', '.', '[4*]CCCCCC', '[3*]O[3*]', '[7*]C(C#N)C#N', '[7*]C1C(=O)c2cc(Cl)c(Cl)cc2C1[7*]', '[7*]C[8*]', '[14*]c1cc2sc3c(c2s1)C(c1cccc([16*])c1)(c1cccc([16*])c1)c1cc2c(cc1-3)C(c1cccc([16*])c1)(c1cccc([16*])c1)c1c-2sc2cc([14*])sc12']","[0, 0, 3, 2, 5, 24, 6, 7, 217, 9, 1, 97, 2, 10, 41, 12, 48]"
PTB-EDOT,ITIC-Th,-5.33,-3.63,-5.673333333333334,-3.908888888888889,0.667,MeTHF,16.0,_,100.0,8.59,8.59,0.84,66.5,"['[3*]O[3*]', '[4*]CC(CC)CCCC', '[1*]C([6*])=O', '[8*]CC(CC)CCCC', '[14*]c1sc2c([14*])sc(C)c2c1F', '[14*]c1sc([14*])c2c1OCCO2', '[14*]c1cc2c([16*])c3sc(C)cc3c([16*])c2s1']","['[7*]C(C#N)C#N', '[7*]C1C(=O)c2ccccc2C1[7*]', '[7*]C[8*]', '[8*]CCCCCC', '[14*]c1ccc(C2(c3ccc([14*])s3)c3cc4c(cc3-c3sc5cc([14*])sc5c32)C(c2ccc([14*])s2)(c2ccc([14*])s2)c2c-4sc3cc([14*])sc23)s1']","['[3*]O[3*]', '[4*]CC(CC)CCCC', '[1*]C([6*])=O', '[8*]CC(CC)CCCC', '[14*]c1sc2c([14*])sc(C)c2c1F', '[14*]c1sc([14*])c2c1OCCO2', '[14*]c1cc2c([16*])c3sc(C)cc3c([16*])c2s1', '.', '[7*]C(C#N)C#N', '[7*]C1C(=O)c2ccccc2C1[7*]', '[7*]C[8*]', '[8*]CCCCCC', '[14*]c1ccc(C2(c3ccc([14*])s3)c3cc4c(cc3-c3sc5cc([14*])sc5c32)C(c2ccc([14*])s2)(c2ccc([14*])s2)c2c-4sc3cc([14*])sc23)s1']","[0, 0, 0, 0, 2, 3, 4, 5, 35, 155, 9, 1, 10, 11, 12, 13, 67]"
PTB-EDOTS,ITIC-Th,-5.38,-3.69,-5.673333333333334,-3.908888888888889,0.667,MeTHF,16.0,_,100.0,10.18,10.18,0.88,71.2,"['[3*]O[3*]', '[4*]CC(CC)CCCC', '[1*]C([6*])=O', '[11*]S[11*]', '[14*]c1sc2c([14*])sc(C)c2c1F', '[14*]c1sc([14*])c2c1OCCO2', '[14*]c1cc2c([16*])c3sc(C)cc3c([16*])c2s1']","['[7*]C(C#N)C#N', '[7*]C1C(=O)c2ccccc2C1[7*]', '[7*]C[8*]', '[8*]CCCCCC', '[14*]c1ccc(C2(c3ccc([14*])s3)c3cc4c(cc3-c3sc5cc([14*])sc5c32)C(c2ccc([14*])s2)(c2ccc([14*])s2)c2c-4sc3cc([14*])sc23)s1']","['[3*]O[3*]', '[4*]CC(CC)CCCC', '[1*]C([6*])=O', '[11*]S[11*]', '[14*]c1sc2c([14*])sc(C)c2c1F', '[14*]c1sc([14*])c2c1OCCO2', '[14*]c1cc2c([16*])c3sc(C)cc3c([16*])c2s1', '.', '[7*]C(C#N)C#N', '[7*]C1C(=O)c2ccccc2C1[7*]', '[7*]C[8*]', '[8*]CCCCCC', '[14*]c1ccc(C2(c3ccc([14*])s3)c3cc4c(cc3-c3sc5cc([14*])sc5c32)C(c2ccc([14*])s2)(c2ccc([14*])s2)c2c-4sc3cc([14*])sc23)s1']","[0, 0, 0, 0, 2, 3, 4, 25, 35, 155, 9, 1, 10, 11, 12, 13, 67]"
POPB,IT-4F,-5.38,-3.57,-5.66875,-4.060416666666667,0.667,CB,20.0,DIO,25.0,6.2,6.19,0.72,51.2,"['[4*]CC(CCCCCC)CCCCCCCC', '[3*]O[3*]', '[8*]CC(CC)CCCC', '[14*]c1ccc(C)s1', '[14*]c1sc([14*])c2c1C(=O)c1c([14*])sc([14*])c1C2=O', '[14*]c1ccc([14*])s1', '[16*]c1ccc([16*])cc1', '[14*]c1cc2c([16*])c3sc(C)cc3c([16*])c2s1']","['[7*]C(C#N)C#N', '[7*]C1C(=O)c2cc(F)c(F)cc2C1[7*]', '[7*]C[8*]', '[8*]CCCCCC', '[14*]c1cc2sc3c(c2s1)C(c1ccc([16*])cc1)(c1ccc([16*])cc1)c1cc2c(cc1-3)C(c1ccc([16*])cc1)(c1ccc([16*])cc1)c1c-2sc2cc([14*])sc12']","['[4*]CC(CCCCCC)CCCCCCCC', '[3*]O[3*]', '[8*]CC(CC)CCCC', '[14*]c1ccc(C)s1', '[14*]c1sc([14*])c2c1C(=O)c1c([14*])sc([14*])c1C2=O', '[14*]c1ccc([14*])s1', '[16*]c1ccc([16*])cc1', '[14*]c1cc2c([16*])c3sc(C)cc3c([16*])c2s1', '.', '[7*]C(C#N)C#N', '[7*]C1C(=O)c2cc(F)c(F)cc2C1[7*]', '[7*]C[8*]', '[8*]CCCCCC', '[14*]c1cc2sc3c(c2s1)C(c1ccc([16*])cc1)(c1ccc([16*])cc1)c1cc2c(cc1-3)C(c1ccc([16*])cc1)(c1ccc([16*])cc1)c1c-2sc2cc([14*])sc12']","[0, 0, 0, 199, 2, 5, 6, 30, 7, 89, 9, 1, 10, 42, 12, 13, 15]"
P3HT,BIBT-NI,-5.057777777777777,-2.989444444444445,-5.62,-3.65,0.833,o-DCB,28.0,_,110.0,2.1,2.09,0.77,44.2,"['[8*]CCCCCC', '[14*]c1sc(C)cc1[16*]', '[14*]c1cc([16*])c(C)s1', '[14*]c1cc([16*])c([14*])s1']","['[8*]CC(CC)CCCC', '[10*]N1C(=O)c2cccc3c([16*])ccc(c23)C1=O', '[14*]c1ccc([14*])s1', '[10*]N1C(=O)c2c(c([16*])c3nsnc3c2[16*])C1=O']","['[8*]CCCCCC', '[14*]c1sc(C)cc1[16*]', '[14*]c1cc([16*])c(C)s1', '[14*]c1cc([16*])c([14*])s1', '.', '[8*]CC(CC)CCCC', '[10*]N1C(=O)c2cccc3c([16*])ccc(c23)C1=O', '[14*]c1ccc([14*])s1', '[10*]N1C(=O)c2c(c([16*])c3nsnc3c2[16*])C1=O']","[0, 0, 0, 0, 0, 0, 0, 0, 13, 102, 57, 34, 1, 5, 88, 7, 218]"
PBDS-T,ITIC,-5.349999999999999,-3.67,-5.574146341463415,-3.915,1.2,CB,20.0,DIO,25.0,10.72,10.72,0.98,60.0,"['[8*]CC(CC)CCCC', '[13*]C1CCC([13*])S1', '[14*]c1ccc(C)s1', '[13*]C1SC([13*])C2C(=O)c3c([14*])sc([14*])c3C(=O)C12', '[14*]c1ccc([Si](CCC)(CCC)CCC)s1', '[14*]c1cc2c([16*])c3sc(C)cc3c([16*])c2s1']","['[7*]C(C#N)C#N', '[7*]C1C(=O)c2ccccc2C1[7*]', '[7*]C[8*]', '[8*]CCCCCC', '[14*]c1cc2sc3c(c2s1)C(c1ccc([16*])cc1)(c1ccc([16*])cc1)c1cc2c(cc1-3)C(c1ccc([16*])cc1)(c1ccc([16*])cc1)c1c-2sc2cc([14*])sc12']","['[8*]CC(CC)CCCC', '[13*]C1CCC([13*])S1', '[14*]c1ccc(C)s1', '[13*]C1SC([13*])C2C(=O)c3c([14*])sc([14*])c3C(=O)C12', '[14*]c1ccc([Si](CCC)(CCC)CCC)s1', '[14*]c1cc2c([16*])c3sc(C)cc3c([16*])c2s1', '.', '[7*]C(C#N)C#N', '[7*]C1C(=O)c2ccccc2C1[7*]', '[7*]C[8*]', '[8*]CCCCCC', '[14*]c1cc2sc3c(c2s1)C(c1ccc([16*])cc1)(c1ccc([16*])cc1)c1cc2c(cc1-3)C(c1ccc([16*])cc1)(c1ccc([16*])cc1)c1c-2sc2cc([14*])sc12']","[0, 0, 0, 0, 0, 5, 219, 6, 220, 18, 9, 1, 10, 11, 12, 13, 15]"
PBDS-T,ITIC-F,-5.349999999999999,-3.67,-5.619999999999999,-4.02,1.0,CB,20.0,DIO,25.0,11.19,11.19,0.9,66.7,"['[8*]CC(CC)CCCC', '[13*]C1CCC([13*])S1', '[14*]c1ccc(C)s1', '[13*]C1SC([13*])C2C(=O)c3c([14*])sc([14*])c3C(=O)C12', '[14*]c1ccc([Si](CCC)(CCC)CCC)s1', '[14*]c1cc2c([16*])c3sc(C)cc3c([16*])c2s1']","['[7*]C(C#N)C#N', '[7*]C1C(=O)c2cc(F)c(F)cc2C1[7*]', '[7*]C[8*]', '[8*]CCCCCC', '[14*]c1cc2sc3c(c2s1)C(c1ccc([16*])cc1)(c1ccc([16*])cc1)c1cc2c(cc1-3)C(c1ccc([16*])cc1)(c1ccc([16*])cc1)c1c-2sc2cc([14*])sc12']","['[8*]CC(CC)CCCC', '[13*]C1CCC([13*])S1', '[14*]c1ccc(C)s1', '[13*]C1SC([13*])C2C(=O)c3c([14*])sc([14*])c3C(=O)C12', '[14*]c1ccc([Si](CCC)(CCC)CCC)s1', '[14*]c1cc2c([16*])c3sc(C)cc3c([16*])c2s1', '.', '[7*]C(C#N)C#N', '[7*]C1C(=O)c2cc(F)c(F)cc2C1[7*]', '[7*]C[8*]', '[8*]CCCCCC', '[14*]c1cc2sc3c(c2s1)C(c1ccc([16*])cc1)(c1ccc([16*])cc1)c1cc2c(cc1-3)C(c1ccc([16*])cc1)(c1ccc([16*])cc1)c1c-2sc2cc([14*])sc12']","[0, 0, 0, 0, 0, 5, 219, 6, 220, 18, 9, 1, 10, 42, 12, 13, 15]"
PBDS-T,ITIC-Th1,-5.349999999999999,-3.67,-5.720000000000001,-4.065,1.0,CB,20.0,DIO,25.0,12.04,12.04,0.88,70.0,"['[8*]CC(CC)CCCC', '[13*]C1CCC([13*])S1', '[14*]c1ccc(C)s1', '[13*]C1SC([13*])C2C(=O)c3c([14*])sc([14*])c3C(=O)C12', '[14*]c1ccc([Si](CCC)(CCC)CCC)s1', '[14*]c1cc2c([16*])c3sc(C)cc3c([16*])c2s1']","['[7*]C(C#N)C#N', '[7*]C1C(=O)c2cc(F)ccc2C1[7*]', '[7*]C[8*]', '[8*]CCCCCC', '[14*]c1ccc(C2(c3ccc([14*])s3)c3cc4c(cc3-c3sc5cc([14*])sc5c32)C(c2ccc([14*])s2)(c2ccc([14*])s2)c2c-4sc3cc([14*])sc23)s1']","['[8*]CC(CC)CCCC', '[13*]C1CCC([13*])S1', '[14*]c1ccc(C)s1', '[13*]C1SC([13*])C2C(=O)c3c([14*])sc([14*])c3C(=O)C12', '[14*]c1ccc([Si](CCC)(CCC)CCC)s1', '[14*]c1cc2c([16*])c3sc(C)cc3c([16*])c2s1', '.', '[7*]C(C#N)C#N', '[7*]C1C(=O)c2cc(F)ccc2C1[7*]', '[7*]C[8*]', '[8*]CCCCCC', '[14*]c1ccc(C2(c3ccc([14*])s3)c3cc4c(cc3-c3sc5cc([14*])sc5c32)C(c2ccc([14*])s2)(c2ccc([14*])s2)c2c-4sc3cc([14*])sc23)s1']","[0, 0, 0, 0, 0, 5, 219, 6, 220, 18, 9, 1, 10, 68, 12, 13, 67]"
J71,ITDM,-5.353333333333333,-3.4318181818181825,-5.58,-3.82,1.0,CF,16.0,_,100.0,12.05,12.05,1.015,70.9,"['[8*]CC(CCCCCC)CCCCCCCC', '[14*]c1ccc(C)s1', '[14*]c1ccc([Si](CCC)(CCC)CCC)s1', '[14*]c1ccc([14*])s1', '[9*]n1nc2c([16*])c(F)c(F)c([16*])c2n1', '[14*]c1cc2c([16*])c3sc(C)cc3c([16*])c2s1']","['[7*]C(C#N)C#N', '[7*]C1C(=O)c2cc(C)c(C)cc2C1[7*]', '[7*]C[8*]', '[8*]CCCCCC', '[7*]CC1=CC2SC3=C(C2S1)C(c1ccc([16*])cc1)(c1ccc([16*])cc1)c1cc2c(cc13)C(c1ccc([16*])cc1)(c1ccc([16*])cc1)c1c-2sc2cc([14*])sc12']","['[8*]CC(CCCCCC)CCCCCCCC', '[14*]c1ccc(C)s1', '[14*]c1ccc([Si](CCC)(CCC)CCC)s1', '[14*]c1ccc([14*])s1', '[9*]n1nc2c([16*])c(F)c(F)c([16*])c2n1', '[14*]c1cc2c([16*])c3sc(C)cc3c([16*])c2s1', '.', '[7*]C(C#N)C#N', '[7*]C1C(=O)c2cc(C)c(C)cc2C1[7*]', '[7*]C[8*]', '[8*]CCCCCC', '[7*]CC1=CC2SC3=C(C2S1)C(c1ccc([16*])cc1)(c1ccc([16*])cc1)c1cc2c(cc13)C(c1ccc([16*])cc1)(c1ccc([16*])cc1)c1c-2sc2cc([14*])sc12']","[0, 0, 0, 0, 0, 17, 6, 18, 7, 19, 9, 1, 10, 184, 12, 13, 221]"
J71,IT-4F,-5.353333333333333,-3.4318181818181825,-5.66875,-4.060416666666667,1.0,CF,16.0,_,100.0,11.66,11.67,0.803,74.2,"['[8*]CC(CCCCCC)CCCCCCCC', '[14*]c1ccc(C)s1', '[14*]c1ccc([Si](CCC)(CCC)CCC)s1', '[14*]c1ccc([14*])s1', '[9*]n1nc2c([16*])c(F)c(F)c([16*])c2n1', '[14*]c1cc2c([16*])c3sc(C)cc3c([16*])c2s1']","['[7*]C(C#N)C#N', '[7*]C1C(=O)c2cc(F)c(F)cc2C1[7*]', '[7*]C[8*]', '[8*]CCCCCC', '[14*]c1cc2sc3c(c2s1)C(c1ccc([16*])cc1)(c1ccc([16*])cc1)c1cc2c(cc1-3)C(c1ccc([16*])cc1)(c1ccc([16*])cc1)c1c-2sc2cc([14*])sc12']","['[8*]CC(CCCCCC)CCCCCCCC', '[14*]c1ccc(C)s1', '[14*]c1ccc([Si](CCC)(CCC)CCC)s1', '[14*]c1ccc([14*])s1', '[9*]n1nc2c([16*])c(F)c(F)c([16*])c2n1', '[14*]c1cc2c([16*])c3sc(C)cc3c([16*])c2s1', '.', '[7*]C(C#N)C#N', '[7*]C1C(=O)c2cc(F)c(F)cc2C1[7*]', '[7*]C[8*]', '[8*]CCCCCC', '[14*]c1cc2sc3c(c2s1)C(c1ccc([16*])cc1)(c1ccc([16*])cc1)c1cc2c(cc1-3)C(c1ccc([16*])cc1)(c1ccc([16*])cc1)c1c-2sc2cc([14*])sc12']","[0, 0, 0, 0, 0, 17, 6, 18, 7, 19, 9, 1, 10, 42, 12, 13, 15]"
2TC-TT-BDTFT,m-ITIC,-5.45,-3.5,-5.526666666666667,-3.8515384615384622,1.0,o-DCB,16.0,_,120.0,9.65,9.59,1.06,59.31,"['[3*]O[3*]', '[4*]CC(CCCC)CCCCCC', '[1*]C([6*])=O', '[8*]CC(CC)CCCC', '[14*]c1sc(C)cc1[16*]', '[14*]c1cc(F)c([14*])s1', '[14*]c1cc([16*])c([14*])s1', '[14*]c1cc2sc([14*])cc2s1', '[14*]c1cc2c([16*])c3sc(C)cc3c([16*])c2s1']","['[7*]C(C#N)C#N', '[7*]C1C(=O)c2ccccc2C1[7*]', '[7*]C[8*]', '[8*]CCCCCC', '[14*]c1cc2sc3c(c2s1)C(c1cccc([16*])c1)(c1cccc([16*])c1)c1cc2c(cc1-3)C(c1cccc([16*])c1)(c1cccc([16*])c1)c1c-2sc2cc([14*])sc12']","['[3*]O[3*]', '[4*]CC(CCCC)CCCCCC', '[1*]C([6*])=O', '[8*]CC(CC)CCCC', '[14*]c1sc(C)cc1[16*]', '[14*]c1cc(F)c([14*])s1', '[14*]c1cc([16*])c([14*])s1', '[14*]c1cc2sc([14*])cc2s1', '[14*]c1cc2c([16*])c3sc(C)cc3c([16*])c2s1', '.', '[7*]C(C#N)C#N', '[7*]C1C(=O)c2ccccc2C1[7*]', '[7*]C[8*]', '[8*]CCCCCC', '[14*]c1cc2sc3c(c2s1)C(c1cccc([16*])c1)(c1cccc([16*])c1)c1cc2c(cc1-3)C(c1cccc([16*])c1)(c1cccc([16*])c1)c1c-2sc2cc([14*])sc12']","[0, 0, 2, 33, 4, 5, 102, 24, 34, 224, 9, 1, 10, 11, 12, 13, 48]"