Donor,Acceptor,HOMO_D_eV,LUMO_D_eV,HOMO_A_eV,LUMO_A_eV,D_A_ratio_m_m,solvent,total_solids_conc_mg_mL,solvent_additive,annealing_temperature,PCE_percent,calc_PCE_percent,Voc_V,FF_percent,Donor_BRICS,Acceptor_BRICS,DA_pair_BRICS,DA_tokenized_BRICS
PBDTTT-C-T,IDTT-2BM,-5.128,-3.268,-5.5,-3.8,1.5,o-DCB,30.0,DIO,25.0,4.81,4.8,0.851,57.2,"[<rdkit.Chem.rdchem.Mol object at 0x7f5838cf98c0>, <rdkit.Chem.rdchem.Mol object at 0x7f5838cf9930>, <rdkit.Chem.rdchem.Mol object at 0x7f5838d042e0>, <rdkit.Chem.rdchem.Mol object at 0x7f5838d04350>, <rdkit.Chem.rdchem.Mol object at 0x7f5838d04900>]","[<rdkit.Chem.rdchem.Mol object at 0x7f5838d044a0>, <rdkit.Chem.rdchem.Mol object at 0x7f5838d04d60>, <rdkit.Chem.rdchem.Mol object at 0x7f5838d04ac0>, <rdkit.Chem.rdchem.Mol object at 0x7f5838d05700>, <rdkit.Chem.rdchem.Mol object at 0x7f5838d053f0>]","[<rdkit.Chem.rdchem.Mol object at 0x7f5838cf98c0>, <rdkit.Chem.rdchem.Mol object at 0x7f5838cf9930>, <rdkit.Chem.rdchem.Mol object at 0x7f5838d042e0>, <rdkit.Chem.rdchem.Mol object at 0x7f5838d04350>, <rdkit.Chem.rdchem.Mol object at 0x7f5838d04900>, '.', <rdkit.Chem.rdchem.Mol object at 0x7f5838d044a0>, <rdkit.Chem.rdchem.Mol object at 0x7f5838d04d60>, <rdkit.Chem.rdchem.Mol object at 0x7f5838d04ac0>, <rdkit.Chem.rdchem.Mol object at 0x7f5838d05700>, <rdkit.Chem.rdchem.Mol object at 0x7f5838d053f0>]","[0, 0, 0, 0, 0, 0, 6258, 6259, 6260, 6261, 6262, 1, 6263, 6264, 6265, 6266, 6267]"
PBDB-T,ITIC,-5.297714285714285,-3.4170000000000003,-5.574146341463415,-3.915,1.0,CB,20.0,_,160.0,8.6,8.57,0.831,71.1,"[<rdkit.Chem.rdchem.Mol object at 0x7f5838cf8660>, <rdkit.Chem.rdchem.Mol object at 0x7f5838d059a0>, <rdkit.Chem.rdchem.Mol object at 0x7f5838d04120>, <rdkit.Chem.rdchem.Mol object at 0x7f5838d06ce0>, <rdkit.Chem.rdchem.Mol object at 0x7f5838d04c10>]","[<rdkit.Chem.rdchem.Mol object at 0x7f5838d05310>, <rdkit.Chem.rdchem.Mol object at 0x7f5838d06f10>, <rdkit.Chem.rdchem.Mol object at 0x7f5838d04b30>, <rdkit.Chem.rdchem.Mol object at 0x7f5838d07220>, <rdkit.Chem.rdchem.Mol object at 0x7f5838d051c0>]","[<rdkit.Chem.rdchem.Mol object at 0x7f5838cf8660>, <rdkit.Chem.rdchem.Mol object at 0x7f5838d059a0>, <rdkit.Chem.rdchem.Mol object at 0x7f5838d04120>, <rdkit.Chem.rdchem.Mol object at 0x7f5838d06ce0>, <rdkit.Chem.rdchem.Mol object at 0x7f5838d04c10>, '.', <rdkit.Chem.rdchem.Mol object at 0x7f5838d05310>, <rdkit.Chem.rdchem.Mol object at 0x7f5838d06f10>, <rdkit.Chem.rdchem.Mol object at 0x7f5838d04b30>, <rdkit.Chem.rdchem.Mol object at 0x7f5838d07220>, <rdkit.Chem.rdchem.Mol object at 0x7f5838d051c0>]","[0, 0, 0, 0, 0, 0, 6295, 6296, 6297, 6298, 6299, 1, 6300, 6301, 6302, 6303, 6304]"
PBDB-T,ITIC,-5.297714285714285,-3.4170000000000003,-5.574146341463415,-3.915,1.0,CB,20.0,DIO,25.0,10.53,10.67,0.87,64.15,"[<rdkit.Chem.rdchem.Mol object at 0x7f5838d05f50>, <rdkit.Chem.rdchem.Mol object at 0x7f5838d049e0>, <rdkit.Chem.rdchem.Mol object at 0x7f5838d05e70>, <rdkit.Chem.rdchem.Mol object at 0x7f5838d04270>, <rdkit.Chem.rdchem.Mol object at 0x7f5838d073e0>]","[<rdkit.Chem.rdchem.Mol object at 0x7f5838d07680>, <rdkit.Chem.rdchem.Mol object at 0x7f5838d06810>, <rdkit.Chem.rdchem.Mol object at 0x7f5838d05000>, <rdkit.Chem.rdchem.Mol object at 0x7f5838d052a0>, <rdkit.Chem.rdchem.Mol object at 0x7f5838d05850>]","[<rdkit.Chem.rdchem.Mol object at 0x7f5838d05f50>, <rdkit.Chem.rdchem.Mol object at 0x7f5838d049e0>, <rdkit.Chem.rdchem.Mol object at 0x7f5838d05e70>, <rdkit.Chem.rdchem.Mol object at 0x7f5838d04270>, <rdkit.Chem.rdchem.Mol object at 0x7f5838d073e0>, '.', <rdkit.Chem.rdchem.Mol object at 0x7f5838d07680>, <rdkit.Chem.rdchem.Mol object at 0x7f5838d06810>, <rdkit.Chem.rdchem.Mol object at 0x7f5838d05000>, <rdkit.Chem.rdchem.Mol object at 0x7f5838d052a0>, <rdkit.Chem.rdchem.Mol object at 0x7f5838d05850>]","[0, 0, 0, 0, 0, 0, 6305, 6306, 6307, 6308, 6309, 1, 6310, 6311, 6312, 6313, 6314]"
J101,ITIC,-5.3,-3.5,-5.574146341463415,-3.915,1.0,CF,16.0,_,150.0,12.47,12.4,0.951,73.65,"[<rdkit.Chem.rdchem.Mol object at 0x7f5838d062d0>, <rdkit.Chem.rdchem.Mol object at 0x7f5838d07ed0>, <rdkit.Chem.rdchem.Mol object at 0x7f5838d07b50>, <rdkit.Chem.rdchem.Mol object at 0x7f5838d07d80>, <rdkit.Chem.rdchem.Mol object at 0x7f5838d05d20>, <rdkit.Chem.rdchem.Mol object at 0x7f5838d07370>]","[<rdkit.Chem.rdchem.Mol object at 0x7f5838d061f0>, <rdkit.Chem.rdchem.Mol object at 0x7f5838d05b60>, <rdkit.Chem.rdchem.Mol object at 0x7f5838d05930>, <rdkit.Chem.rdchem.Mol object at 0x7f5838d077d0>, <rdkit.Chem.rdchem.Mol object at 0x7f5838d146d0>]","[<rdkit.Chem.rdchem.Mol object at 0x7f5838d062d0>, <rdkit.Chem.rdchem.Mol object at 0x7f5838d07ed0>, <rdkit.Chem.rdchem.Mol object at 0x7f5838d07b50>, <rdkit.Chem.rdchem.Mol object at 0x7f5838d07d80>, <rdkit.Chem.rdchem.Mol object at 0x7f5838d05d20>, <rdkit.Chem.rdchem.Mol object at 0x7f5838d07370>, '.', <rdkit.Chem.rdchem.Mol object at 0x7f5838d061f0>, <rdkit.Chem.rdchem.Mol object at 0x7f5838d05b60>, <rdkit.Chem.rdchem.Mol object at 0x7f5838d05930>, <rdkit.Chem.rdchem.Mol object at 0x7f5838d077d0>, <rdkit.Chem.rdchem.Mol object at 0x7f5838d146d0>]","[0, 0, 0, 0, 0, 6357, 6358, 6359, 6360, 6361, 6362, 1, 6363, 6364, 6365, 6366, 6367]"
J101,ZITI,-5.3,-3.5,-5.550000000000001,-3.78,1.0,CF,16.0,_,120.0,14.43,14.43,0.937,72.48,"[<rdkit.Chem.rdchem.Mol object at 0x7f5838d05fc0>, <rdkit.Chem.rdchem.Mol object at 0x7f5838d05d90>, <rdkit.Chem.rdchem.Mol object at 0x7f5838d07300>, <rdkit.Chem.rdchem.Mol object at 0x7f5838d07df0>, <rdkit.Chem.rdchem.Mol object at 0x7f5838d147b0>, <rdkit.Chem.rdchem.Mol object at 0x7f5838d14660>]","[<rdkit.Chem.rdchem.Mol object at 0x7f5838d07e60>, <rdkit.Chem.rdchem.Mol object at 0x7f5838d14040>, <rdkit.Chem.rdchem.Mol object at 0x7f5838d07f40>, <rdkit.Chem.rdchem.Mol object at 0x7f5838d14350>]","[<rdkit.Chem.rdchem.Mol object at 0x7f5838d05fc0>, <rdkit.Chem.rdchem.Mol object at 0x7f5838d05d90>, <rdkit.Chem.rdchem.Mol object at 0x7f5838d07300>, <rdkit.Chem.rdchem.Mol object at 0x7f5838d07df0>, <rdkit.Chem.rdchem.Mol object at 0x7f5838d147b0>, <rdkit.Chem.rdchem.Mol object at 0x7f5838d14660>, '.', <rdkit.Chem.rdchem.Mol object at 0x7f5838d07e60>, <rdkit.Chem.rdchem.Mol object at 0x7f5838d14040>, <rdkit.Chem.rdchem.Mol object at 0x7f5838d07f40>, <rdkit.Chem.rdchem.Mol object at 0x7f5838d14350>]","[0, 0, 0, 0, 0, 0, 6368, 6369, 6370, 6371, 6372, 6373, 1, 6374, 6375, 6376, 6377]"
PTB7-Th,DICTF-C10,-5.204782608695651,-3.5391891891891896,-5.67,-3.89,0.667,o-DCB,25.0,_,25.0,6.93,8.33,0.865,50.0,"[<rdkit.Chem.rdchem.Mol object at 0x7f5838d07610>, <rdkit.Chem.rdchem.Mol object at 0x7f5838d07a00>, <rdkit.Chem.rdchem.Mol object at 0x7f5838d144a0>, <rdkit.Chem.rdchem.Mol object at 0x7f5838d14c80>, <rdkit.Chem.rdchem.Mol object at 0x7f5838d14970>, <rdkit.Chem.rdchem.Mol object at 0x7f5838d14d60>, <rdkit.Chem.rdchem.Mol object at 0x7f5838d14f90>]","[<rdkit.Chem.rdchem.Mol object at 0x7f5838d14b30>, <rdkit.Chem.rdchem.Mol object at 0x7f5838d14c10>, <rdkit.Chem.rdchem.Mol object at 0x7f5838d14cf0>, <rdkit.Chem.rdchem.Mol object at 0x7f5838d14190>, <rdkit.Chem.rdchem.Mol object at 0x7f5838d140b0>]","[<rdkit.Chem.rdchem.Mol object at 0x7f5838d07610>, <rdkit.Chem.rdchem.Mol object at 0x7f5838d07a00>, <rdkit.Chem.rdchem.Mol object at 0x7f5838d144a0>, <rdkit.Chem.rdchem.Mol object at 0x7f5838d14c80>, <rdkit.Chem.rdchem.Mol object at 0x7f5838d14970>, <rdkit.Chem.rdchem.Mol object at 0x7f5838d14d60>, <rdkit.Chem.rdchem.Mol object at 0x7f5838d14f90>, '.', <rdkit.Chem.rdchem.Mol object at 0x7f5838d14b30>, <rdkit.Chem.rdchem.Mol object at 0x7f5838d14c10>, <rdkit.Chem.rdchem.Mol object at 0x7f5838d14cf0>, <rdkit.Chem.rdchem.Mol object at 0x7f5838d14190>, <rdkit.Chem.rdchem.Mol object at 0x7f5838d140b0>]","[0, 0, 0, 0, 6388, 6389, 6390, 6391, 6392, 6393, 6394, 1, 6395, 6396, 6397, 6398, 6399]"