Donor,Acceptor,HOMO_D_eV,LUMO_D_eV,HOMO_A_eV,LUMO_A_eV,D_A_ratio_m_m,solvent,total_solids_conc_mg_mL,solvent_additive,annealing_temperature,PCE_percent,calc_PCE_percent,Voc_V,FF_percent,Donor_BRICS,Acceptor_BRICS,DA_pair_BRICS,DA_tokenized_BRICS
PBDB-T,BDTIT-M,-5.297714285714285,-3.4170000000000003,-5.4,-3.85,1.0,CB,20.0,DIO,100.0,11.31,11.31,0.903,71.3,"[<rdkit.Chem.rdchem.Mol object at 0x7f5838cd9fc0>, <rdkit.Chem.rdchem.Mol object at 0x7f5838cdb370>, <rdkit.Chem.rdchem.Mol object at 0x7f5838cdb3e0>, <rdkit.Chem.rdchem.Mol object at 0x7f5838cd9540>, <rdkit.Chem.rdchem.Mol object at 0x7f5838cdb760>]","[<rdkit.Chem.rdchem.Mol object at 0x7f5838cdbf40>, <rdkit.Chem.rdchem.Mol object at 0x7f5838cd9c40>, <rdkit.Chem.rdchem.Mol object at 0x7f5838cdad50>, <rdkit.Chem.rdchem.Mol object at 0x7f5838cdb680>, <rdkit.Chem.rdchem.Mol object at 0x7f5838cdb6f0>, <rdkit.Chem.rdchem.Mol object at 0x7f5838ce1150>, <rdkit.Chem.rdchem.Mol object at 0x7f5838ce11c0>]","[<rdkit.Chem.rdchem.Mol object at 0x7f5838cd9fc0>, <rdkit.Chem.rdchem.Mol object at 0x7f5838cdb370>, <rdkit.Chem.rdchem.Mol object at 0x7f5838cdb3e0>, <rdkit.Chem.rdchem.Mol object at 0x7f5838cd9540>, <rdkit.Chem.rdchem.Mol object at 0x7f5838cdb760>, '.', <rdkit.Chem.rdchem.Mol object at 0x7f5838cdbf40>, <rdkit.Chem.rdchem.Mol object at 0x7f5838cd9c40>, <rdkit.Chem.rdchem.Mol object at 0x7f5838cdad50>, <rdkit.Chem.rdchem.Mol object at 0x7f5838cdb680>, <rdkit.Chem.rdchem.Mol object at 0x7f5838cdb6f0>, <rdkit.Chem.rdchem.Mol object at 0x7f5838ce1150>, <rdkit.Chem.rdchem.Mol object at 0x7f5838ce11c0>]","[0, 0, 0, 0, 5757, 5758, 5759, 5760, 5761, 1, 5762, 5763, 5764, 5765, 5766, 5767, 5768]"
PBDB-T,BDTThIT-M,-5.297714285714285,-3.4170000000000003,-5.35,-3.82,1.0,CB,20.0,DIO,100.0,12.12,12.13,0.942,71.4,"[<rdkit.Chem.rdchem.Mol object at 0x7f5838cdb990>, <rdkit.Chem.rdchem.Mol object at 0x7f5838cdb290>, <rdkit.Chem.rdchem.Mol object at 0x7f5838cdab20>, <rdkit.Chem.rdchem.Mol object at 0x7f5838cdaf10>, <rdkit.Chem.rdchem.Mol object at 0x7f5838ce10e0>]","[<rdkit.Chem.rdchem.Mol object at 0x7f5838cdb140>, <rdkit.Chem.rdchem.Mol object at 0x7f5838cd99a0>, <rdkit.Chem.rdchem.Mol object at 0x7f5838cdb060>, <rdkit.Chem.rdchem.Mol object at 0x7f5838cdae30>, <rdkit.Chem.rdchem.Mol object at 0x7f5838cda960>]","[<rdkit.Chem.rdchem.Mol object at 0x7f5838cdb990>, <rdkit.Chem.rdchem.Mol object at 0x7f5838cdb290>, <rdkit.Chem.rdchem.Mol object at 0x7f5838cdab20>, <rdkit.Chem.rdchem.Mol object at 0x7f5838cdaf10>, <rdkit.Chem.rdchem.Mol object at 0x7f5838ce10e0>, '.', <rdkit.Chem.rdchem.Mol object at 0x7f5838cdb140>, <rdkit.Chem.rdchem.Mol object at 0x7f5838cd99a0>, <rdkit.Chem.rdchem.Mol object at 0x7f5838cdb060>, <rdkit.Chem.rdchem.Mol object at 0x7f5838cdae30>, <rdkit.Chem.rdchem.Mol object at 0x7f5838cda960>]","[0, 0, 0, 0, 0, 0, 5769, 5770, 5771, 5772, 5773, 1, 5774, 5775, 5776, 5777, 5778]"
PBZ,ITIC,-5.18,-3.22,-5.574146341463415,-3.915,0.8,CB,9.0,_,25.0,8.0,8.02,0.79,59.0,"[<rdkit.Chem.rdchem.Mol object at 0x7f5838cdb220>, <rdkit.Chem.rdchem.Mol object at 0x7f5838cdb5a0>, <rdkit.Chem.rdchem.Mol object at 0x7f5838cdbe60>, <rdkit.Chem.rdchem.Mol object at 0x7f5838cdbae0>, <rdkit.Chem.rdchem.Mol object at 0x7f5838cd9770>, <rdkit.Chem.rdchem.Mol object at 0x7f5838cdb920>]","[<rdkit.Chem.rdchem.Mol object at 0x7f5838cdb7d0>, <rdkit.Chem.rdchem.Mol object at 0x7f5838cdbb50>, <rdkit.Chem.rdchem.Mol object at 0x7f5838cda420>, <rdkit.Chem.rdchem.Mol object at 0x7f5838cdac00>, <rdkit.Chem.rdchem.Mol object at 0x7f5838cd8120>]","[<rdkit.Chem.rdchem.Mol object at 0x7f5838cdb220>, <rdkit.Chem.rdchem.Mol object at 0x7f5838cdb5a0>, <rdkit.Chem.rdchem.Mol object at 0x7f5838cdbe60>, <rdkit.Chem.rdchem.Mol object at 0x7f5838cdbae0>, <rdkit.Chem.rdchem.Mol object at 0x7f5838cd9770>, <rdkit.Chem.rdchem.Mol object at 0x7f5838cdb920>, '.', <rdkit.Chem.rdchem.Mol object at 0x7f5838cdb7d0>, <rdkit.Chem.rdchem.Mol object at 0x7f5838cdbb50>, <rdkit.Chem.rdchem.Mol object at 0x7f5838cda420>, <rdkit.Chem.rdchem.Mol object at 0x7f5838cdac00>, <rdkit.Chem.rdchem.Mol object at 0x7f5838cd8120>]","[0, 0, 0, 0, 0, 5779, 5780, 5781, 5782, 5783, 5784, 1, 5785, 5786, 5787, 5788, 5789]"
J51,ITIC,-5.24,-3.056666666666666,-5.574146341463415,-3.915,0.5,CF,9.0,_,25.0,7.03,7.21,0.84,61.0,"[<rdkit.Chem.rdchem.Mol object at 0x7f5838cdb8b0>, <rdkit.Chem.rdchem.Mol object at 0x7f5838cdab90>, <rdkit.Chem.rdchem.Mol object at 0x7f5838ce07b0>, <rdkit.Chem.rdchem.Mol object at 0x7f5838ce0c80>, <rdkit.Chem.rdchem.Mol object at 0x7f5838ce1000>, <rdkit.Chem.rdchem.Mol object at 0x7f5838ce0740>]","[<rdkit.Chem.rdchem.Mol object at 0x7f5838cdbdf0>, <rdkit.Chem.rdchem.Mol object at 0x7f5838ce0820>, <rdkit.Chem.rdchem.Mol object at 0x7f5838cdaa40>, <rdkit.Chem.rdchem.Mol object at 0x7f5838cdbca0>, <rdkit.Chem.rdchem.Mol object at 0x7f5838ce1070>]","[<rdkit.Chem.rdchem.Mol object at 0x7f5838cdb8b0>, <rdkit.Chem.rdchem.Mol object at 0x7f5838cdab90>, <rdkit.Chem.rdchem.Mol object at 0x7f5838ce07b0>, <rdkit.Chem.rdchem.Mol object at 0x7f5838ce0c80>, <rdkit.Chem.rdchem.Mol object at 0x7f5838ce1000>, <rdkit.Chem.rdchem.Mol object at 0x7f5838ce0740>, '.', <rdkit.Chem.rdchem.Mol object at 0x7f5838cdbdf0>, <rdkit.Chem.rdchem.Mol object at 0x7f5838ce0820>, <rdkit.Chem.rdchem.Mol object at 0x7f5838cdaa40>, <rdkit.Chem.rdchem.Mol object at 0x7f5838cdbca0>, <rdkit.Chem.rdchem.Mol object at 0x7f5838ce1070>]","[0, 0, 0, 0, 0, 5802, 5803, 5804, 5805, 5806, 5807, 1, 5808, 5809, 5810, 5811, 5812]"
J60,ITIC,-5.32,-3.08,-5.574146341463415,-3.915,1.0,CF,10.0,_,25.0,5.17,5.17,0.92,57.45,"[<rdkit.Chem.rdchem.Mol object at 0x7f5838cd9700>, <rdkit.Chem.rdchem.Mol object at 0x7f5838cdb300>, <rdkit.Chem.rdchem.Mol object at 0x7f5838cd9f50>, <rdkit.Chem.rdchem.Mol object at 0x7f5838ce09e0>, <rdkit.Chem.rdchem.Mol object at 0x7f5838ce0040>, <rdkit.Chem.rdchem.Mol object at 0x7f5838ce0e40>, <rdkit.Chem.rdchem.Mol object at 0x7f5838ce1310>]","[<rdkit.Chem.rdchem.Mol object at 0x7f5838cd93f0>, <rdkit.Chem.rdchem.Mol object at 0x7f5838ce02e0>, <rdkit.Chem.rdchem.Mol object at 0x7f5838cdb610>, <rdkit.Chem.rdchem.Mol object at 0x7f5838ce12a0>, <rdkit.Chem.rdchem.Mol object at 0x7f5838ce0c10>]","[<rdkit.Chem.rdchem.Mol object at 0x7f5838cd9700>, <rdkit.Chem.rdchem.Mol object at 0x7f5838cdb300>, <rdkit.Chem.rdchem.Mol object at 0x7f5838cd9f50>, <rdkit.Chem.rdchem.Mol object at 0x7f5838ce09e0>, <rdkit.Chem.rdchem.Mol object at 0x7f5838ce0040>, <rdkit.Chem.rdchem.Mol object at 0x7f5838ce0e40>, <rdkit.Chem.rdchem.Mol object at 0x7f5838ce1310>, '.', <rdkit.Chem.rdchem.Mol object at 0x7f5838cd93f0>, <rdkit.Chem.rdchem.Mol object at 0x7f5838ce02e0>, <rdkit.Chem.rdchem.Mol object at 0x7f5838cdb610>, <rdkit.Chem.rdchem.Mol object at 0x7f5838ce12a0>, <rdkit.Chem.rdchem.Mol object at 0x7f5838ce0c10>]","[0, 0, 0, 0, 5813, 5814, 5815, 5816, 5817, 5818, 5819, 1, 5820, 5821, 5822, 5823, 5824]"
J61,ITIC,-5.303333333333334,-3.151666666666667,-5.574146341463415,-3.915,1.0,CF,10.0,_,25.0,9.15,9.05,0.91,66.55,"[<rdkit.Chem.rdchem.Mol object at 0x7f5838cdb450>, <rdkit.Chem.rdchem.Mol object at 0x7f5838cdb0d0>, <rdkit.Chem.rdchem.Mol object at 0x7f5838cdb4c0>, <rdkit.Chem.rdchem.Mol object at 0x7f5838ce04a0>, <rdkit.Chem.rdchem.Mol object at 0x7f5838ce03c0>, <rdkit.Chem.rdchem.Mol object at 0x7f5838ce05f0>, <rdkit.Chem.rdchem.Mol object at 0x7f5838ce1850>]","[<rdkit.Chem.rdchem.Mol object at 0x7f5838ce1770>, <rdkit.Chem.rdchem.Mol object at 0x7f5838ce1230>, <rdkit.Chem.rdchem.Mol object at 0x7f5838ce0dd0>, <rdkit.Chem.rdchem.Mol object at 0x7f5838ce1540>, <rdkit.Chem.rdchem.Mol object at 0x7f5838ce0430>]","[<rdkit.Chem.rdchem.Mol object at 0x7f5838cdb450>, <rdkit.Chem.rdchem.Mol object at 0x7f5838cdb0d0>, <rdkit.Chem.rdchem.Mol object at 0x7f5838cdb4c0>, <rdkit.Chem.rdchem.Mol object at 0x7f5838ce04a0>, <rdkit.Chem.rdchem.Mol object at 0x7f5838ce03c0>, <rdkit.Chem.rdchem.Mol object at 0x7f5838ce05f0>, <rdkit.Chem.rdchem.Mol object at 0x7f5838ce1850>, '.', <rdkit.Chem.rdchem.Mol object at 0x7f5838ce1770>, <rdkit.Chem.rdchem.Mol object at 0x7f5838ce1230>, <rdkit.Chem.rdchem.Mol object at 0x7f5838ce0dd0>, <rdkit.Chem.rdchem.Mol object at 0x7f5838ce1540>, <rdkit.Chem.rdchem.Mol object at 0x7f5838ce0430>]","[0, 0, 0, 0, 5825, 5826, 5827, 5828, 5829, 5830, 5831, 1, 5832, 5833, 5834, 5835, 5836]"
PTB7,IEICO-4F,-5.175,-3.435,-5.309971428571429,-3.851028571428572,0.667,CB,25.0,DIO,25.0,2.3,2.3,0.54,28.92,"[<rdkit.Chem.rdchem.Mol object at 0x7f5838cdb530>, <rdkit.Chem.rdchem.Mol object at 0x7f5838ce0970>, <rdkit.Chem.rdchem.Mol object at 0x7f5838ce0510>, <rdkit.Chem.rdchem.Mol object at 0x7f5838ce0cf0>, <rdkit.Chem.rdchem.Mol object at 0x7f5838ce1620>]","[<rdkit.Chem.rdchem.Mol object at 0x7f5838cd9a80>, <rdkit.Chem.rdchem.Mol object at 0x7f5838ce13f0>, <rdkit.Chem.rdchem.Mol object at 0x7f5838ce0660>, <rdkit.Chem.rdchem.Mol object at 0x7f5838ce0a50>, <rdkit.Chem.rdchem.Mol object at 0x7f5838ce0f20>, <rdkit.Chem.rdchem.Mol object at 0x7f5838ce0120>, <rdkit.Chem.rdchem.Mol object at 0x7f5838ce1ee0>, <rdkit.Chem.rdchem.Mol object at 0x7f5838ce1b60>]","[<rdkit.Chem.rdchem.Mol object at 0x7f5838cdb530>, <rdkit.Chem.rdchem.Mol object at 0x7f5838ce0970>, <rdkit.Chem.rdchem.Mol object at 0x7f5838ce0510>, <rdkit.Chem.rdchem.Mol object at 0x7f5838ce0cf0>, <rdkit.Chem.rdchem.Mol object at 0x7f5838ce1620>, '.', <rdkit.Chem.rdchem.Mol object at 0x7f5838cd9a80>, <rdkit.Chem.rdchem.Mol object at 0x7f5838ce13f0>, <rdkit.Chem.rdchem.Mol object at 0x7f5838ce0660>, <rdkit.Chem.rdchem.Mol object at 0x7f5838ce0a50>, <rdkit.Chem.rdchem.Mol object at 0x7f5838ce0f20>, <rdkit.Chem.rdchem.Mol object at 0x7f5838ce0120>, <rdkit.Chem.rdchem.Mol object at 0x7f5838ce1ee0>, <rdkit.Chem.rdchem.Mol object at 0x7f5838ce1b60>]","[0, 0, 0, 5837, 5838, 5839, 5840, 5841, 1, 5842, 5843, 5844, 5845, 5846, 5847, 5848, 5849]"
PTB7-Th,IEICO-4F,-5.204782608695651,-3.5391891891891896,-5.309971428571429,-3.851028571428572,0.667,CB,25.0,CN,25.0,11.6,11.6,0.72,69.41,"[<rdkit.Chem.rdchem.Mol object at 0x7f5838ce2110>, <rdkit.Chem.rdchem.Mol object at 0x7f5838ce1a80>, <rdkit.Chem.rdchem.Mol object at 0x7f5838ce1bd0>, <rdkit.Chem.rdchem.Mol object at 0x7f5838ce1d20>, <rdkit.Chem.rdchem.Mol object at 0x7f5838ce1460>, <rdkit.Chem.rdchem.Mol object at 0x7f5838ce17e0>, <rdkit.Chem.rdchem.Mol object at 0x7f5838ce0270>]","[<rdkit.Chem.rdchem.Mol object at 0x7f5838ce1af0>, <rdkit.Chem.rdchem.Mol object at 0x7f5838ce0ba0>, <rdkit.Chem.rdchem.Mol object at 0x7f5838ce1e00>, <rdkit.Chem.rdchem.Mol object at 0x7f5838ce1c40>, <rdkit.Chem.rdchem.Mol object at 0x7f5838ce0350>, <rdkit.Chem.rdchem.Mol object at 0x7f5838ce06d0>, <rdkit.Chem.rdchem.Mol object at 0x7f5838ce2570>, <rdkit.Chem.rdchem.Mol object at 0x7f5838ce1fc0>]","[<rdkit.Chem.rdchem.Mol object at 0x7f5838ce2110>, <rdkit.Chem.rdchem.Mol object at 0x7f5838ce1a80>, <rdkit.Chem.rdchem.Mol object at 0x7f5838ce1bd0>, <rdkit.Chem.rdchem.Mol object at 0x7f5838ce1d20>, <rdkit.Chem.rdchem.Mol object at 0x7f5838ce1460>, <rdkit.Chem.rdchem.Mol object at 0x7f5838ce17e0>, <rdkit.Chem.rdchem.Mol object at 0x7f5838ce0270>, '.', <rdkit.Chem.rdchem.Mol object at 0x7f5838ce1af0>, <rdkit.Chem.rdchem.Mol object at 0x7f5838ce0ba0>, <rdkit.Chem.rdchem.Mol object at 0x7f5838ce1e00>, <rdkit.Chem.rdchem.Mol object at 0x7f5838ce1c40>, <rdkit.Chem.rdchem.Mol object at 0x7f5838ce0350>, <rdkit.Chem.rdchem.Mol object at 0x7f5838ce06d0>, <rdkit.Chem.rdchem.Mol object at 0x7f5838ce2570>, <rdkit.Chem.rdchem.Mol object at 0x7f5838ce1fc0>]","[0, 5850, 5851, 5852, 5853, 5854, 5855, 5856, 1, 5857, 5858, 5859, 5860, 5861, 5862, 5863, 5864]"
PBDB-T,TTIC-M,-5.297714285714285,-3.4170000000000003,-5.49,-4.03,1.0,CB,20.0,_,25.0,9.85,9.97,0.83,63.0,"[<rdkit.Chem.rdchem.Mol object at 0x7f5838cd82e0>, <rdkit.Chem.rdchem.Mol object at 0x7f5838ce2500>, <rdkit.Chem.rdchem.Mol object at 0x7f5838ce2030>, <rdkit.Chem.rdchem.Mol object at 0x7f5838ce2960>, <rdkit.Chem.rdchem.Mol object at 0x7f5838ce33e0>]","[<rdkit.Chem.rdchem.Mol object at 0x7f5838ce3610>, <rdkit.Chem.rdchem.Mol object at 0x7f5838ce2b90>, <rdkit.Chem.rdchem.Mol object at 0x7f5838ce1700>, <rdkit.Chem.rdchem.Mol object at 0x7f5838ce2b20>, <rdkit.Chem.rdchem.Mol object at 0x7f5838ce18c0>]","[<rdkit.Chem.rdchem.Mol object at 0x7f5838cd82e0>, <rdkit.Chem.rdchem.Mol object at 0x7f5838ce2500>, <rdkit.Chem.rdchem.Mol object at 0x7f5838ce2030>, <rdkit.Chem.rdchem.Mol object at 0x7f5838ce2960>, <rdkit.Chem.rdchem.Mol object at 0x7f5838ce33e0>, '.', <rdkit.Chem.rdchem.Mol object at 0x7f5838ce3610>, <rdkit.Chem.rdchem.Mol object at 0x7f5838ce2b90>, <rdkit.Chem.rdchem.Mol object at 0x7f5838ce1700>, <rdkit.Chem.rdchem.Mol object at 0x7f5838ce2b20>, <rdkit.Chem.rdchem.Mol object at 0x7f5838ce18c0>]","[0, 0, 0, 0, 0, 0, 5879, 5880, 5881, 5882, 5883, 1, 5884, 5885, 5886, 5887, 5888]"
PBDB-T,TTIC,-5.297714285714285,-3.4170000000000003,-5.54,-4.109999999999999,1.0,CB,20.0,_,25.0,10.73,10.87,0.8,66.0,"[<rdkit.Chem.rdchem.Mol object at 0x7f5838ce0190>, <rdkit.Chem.rdchem.Mol object at 0x7f5838ce2f10>, <rdkit.Chem.rdchem.Mol object at 0x7f5838ce2f80>, <rdkit.Chem.rdchem.Mol object at 0x7f5838ce1a10>, <rdkit.Chem.rdchem.Mol object at 0x7f5838ce38b0>]","[<rdkit.Chem.rdchem.Mol object at 0x7f5838ce3ae0>, <rdkit.Chem.rdchem.Mol object at 0x7f5838ce1690>, <rdkit.Chem.rdchem.Mol object at 0x7f5838ce2880>, <rdkit.Chem.rdchem.Mol object at 0x7f5838ce19a0>, <rdkit.Chem.rdchem.Mol object at 0x7f5838ce3450>]","[<rdkit.Chem.rdchem.Mol object at 0x7f5838ce0190>, <rdkit.Chem.rdchem.Mol object at 0x7f5838ce2f10>, <rdkit.Chem.rdchem.Mol object at 0x7f5838ce2f80>, <rdkit.Chem.rdchem.Mol object at 0x7f5838ce1a10>, <rdkit.Chem.rdchem.Mol object at 0x7f5838ce38b0>, '.', <rdkit.Chem.rdchem.Mol object at 0x7f5838ce3ae0>, <rdkit.Chem.rdchem.Mol object at 0x7f5838ce1690>, <rdkit.Chem.rdchem.Mol object at 0x7f5838ce2880>, <rdkit.Chem.rdchem.Mol object at 0x7f5838ce19a0>, <rdkit.Chem.rdchem.Mol object at 0x7f5838ce3450>]","[0, 0, 0, 0, 0, 0, 5889, 5890, 5891, 5892, 5893, 1, 5894, 5895, 5896, 5897, 5898]"
J71,ITIC,-5.353333333333333,-3.4318181818181825,-5.574146341463415,-3.915,0.8,CB,22.5,_,25.0,9.03,9.05,0.96,63.63,"[<rdkit.Chem.rdchem.Mol object at 0x7f5838ce2ff0>, <rdkit.Chem.rdchem.Mol object at 0x7f5838ce23b0>, <rdkit.Chem.rdchem.Mol object at 0x7f5838ce25e0>, <rdkit.Chem.rdchem.Mol object at 0x7f5838ce1f50>, <rdkit.Chem.rdchem.Mol object at 0x7f5838ce29d0>, <rdkit.Chem.rdchem.Mol object at 0x7f5838ce3220>]","[<rdkit.Chem.rdchem.Mol object at 0x7f5838ce3760>, <rdkit.Chem.rdchem.Mol object at 0x7f5838ce3ca0>, <rdkit.Chem.rdchem.Mol object at 0x7f5838ce3c30>, <rdkit.Chem.rdchem.Mol object at 0x7f5838ce22d0>, <rdkit.Chem.rdchem.Mol object at 0x7f5838ce2420>]","[<rdkit.Chem.rdchem.Mol object at 0x7f5838ce2ff0>, <rdkit.Chem.rdchem.Mol object at 0x7f5838ce23b0>, <rdkit.Chem.rdchem.Mol object at 0x7f5838ce25e0>, <rdkit.Chem.rdchem.Mol object at 0x7f5838ce1f50>, <rdkit.Chem.rdchem.Mol object at 0x7f5838ce29d0>, <rdkit.Chem.rdchem.Mol object at 0x7f5838ce3220>, '.', <rdkit.Chem.rdchem.Mol object at 0x7f5838ce3760>, <rdkit.Chem.rdchem.Mol object at 0x7f5838ce3ca0>, <rdkit.Chem.rdchem.Mol object at 0x7f5838ce3c30>, <rdkit.Chem.rdchem.Mol object at 0x7f5838ce22d0>, <rdkit.Chem.rdchem.Mol object at 0x7f5838ce2420>]","[0, 0, 0, 0, 0, 5909, 5910, 5911, 5912, 5913, 5914, 1, 5915, 5916, 5917, 5918, 5919]"
PBDB-T,IT-M,-5.297714285714285,-3.4170000000000003,-5.513571428571429,-3.808,1.0,CB,20.0,DIO,25.0,11.5,11.23,0.961,70.0,"[<rdkit.Chem.rdchem.Mol object at 0x7f5838ce2dc0>, <rdkit.Chem.rdchem.Mol object at 0x7f5838ced7e0>, <rdkit.Chem.rdchem.Mol object at 0x7f5838ced9a0>, <rdkit.Chem.rdchem.Mol object at 0x7f5838cedc40>, <rdkit.Chem.rdchem.Mol object at 0x7f5838cee650>]","[<rdkit.Chem.rdchem.Mol object at 0x7f5838cee880>, <rdkit.Chem.rdchem.Mol object at 0x7f5838cede00>, <rdkit.Chem.rdchem.Mol object at 0x7f5838ced8c0>, <rdkit.Chem.rdchem.Mol object at 0x7f5838cedd90>, <rdkit.Chem.rdchem.Mol object at 0x7f5838ced770>]","[<rdkit.Chem.rdchem.Mol object at 0x7f5838ce2dc0>, <rdkit.Chem.rdchem.Mol object at 0x7f5838ced7e0>, <rdkit.Chem.rdchem.Mol object at 0x7f5838ced9a0>, <rdkit.Chem.rdchem.Mol object at 0x7f5838cedc40>, <rdkit.Chem.rdchem.Mol object at 0x7f5838cee650>, '.', <rdkit.Chem.rdchem.Mol object at 0x7f5838cee880>, <rdkit.Chem.rdchem.Mol object at 0x7f5838cede00>, <rdkit.Chem.rdchem.Mol object at 0x7f5838ced8c0>, <rdkit.Chem.rdchem.Mol object at 0x7f5838cedd90>, <rdkit.Chem.rdchem.Mol object at 0x7f5838ced770>]","[0, 0, 0, 0, 0, 0, 5990, 5991, 5992, 5993, 5994, 1, 5995, 5996, 5997, 5998, 5999]"
PTB7-Th,4TIC,-5.204782608695651,-3.5391891891891896,-5.28,-3.87,0.5,CB,30.0,DIO,25.0,10.43,10.56,0.78,72.0,"[<rdkit.Chem.rdchem.Mol object at 0x7f5838ced540>, <rdkit.Chem.rdchem.Mol object at 0x7f5838ced4d0>, <rdkit.Chem.rdchem.Mol object at 0x7f5838cec510>, <rdkit.Chem.rdchem.Mol object at 0x7f5838cecf20>, <rdkit.Chem.rdchem.Mol object at 0x7f5838cee260>, <rdkit.Chem.rdchem.Mol object at 0x7f5838cecba0>, <rdkit.Chem.rdchem.Mol object at 0x7f5838cedf50>]","[<rdkit.Chem.rdchem.Mol object at 0x7f5838cee180>, <rdkit.Chem.rdchem.Mol object at 0x7f5838ced700>, <rdkit.Chem.rdchem.Mol object at 0x7f5838cedcb0>, <rdkit.Chem.rdchem.Mol object at 0x7f5838ced930>, <rdkit.Chem.rdchem.Mol object at 0x7f5838ced380>]","[<rdkit.Chem.rdchem.Mol object at 0x7f5838ced540>, <rdkit.Chem.rdchem.Mol object at 0x7f5838ced4d0>, <rdkit.Chem.rdchem.Mol object at 0x7f5838cec510>, <rdkit.Chem.rdchem.Mol object at 0x7f5838cecf20>, <rdkit.Chem.rdchem.Mol object at 0x7f5838cee260>, <rdkit.Chem.rdchem.Mol object at 0x7f5838cecba0>, <rdkit.Chem.rdchem.Mol object at 0x7f5838cedf50>, '.', <rdkit.Chem.rdchem.Mol object at 0x7f5838cee180>, <rdkit.Chem.rdchem.Mol object at 0x7f5838ced700>, <rdkit.Chem.rdchem.Mol object at 0x7f5838cedcb0>, <rdkit.Chem.rdchem.Mol object at 0x7f5838ced930>, <rdkit.Chem.rdchem.Mol object at 0x7f5838ced380>]","[0, 0, 0, 0, 6000, 6001, 6002, 6003, 6004, 6005, 6006, 1, 6007, 6008, 6009, 6010, 6011]"
PTB7-Th,ITIC,-5.204782608695651,-3.5391891891891896,-5.574146341463415,-3.915,0.8,CB,22.5,_,25.0,7.28,7.18,0.83,57.0,"[<rdkit.Chem.rdchem.Mol object at 0x7f5838cee8f0>, <rdkit.Chem.rdchem.Mol object at 0x7f5838ced230>, <rdkit.Chem.rdchem.Mol object at 0x7f5838cee500>, <rdkit.Chem.rdchem.Mol object at 0x7f5838ced310>, <rdkit.Chem.rdchem.Mol object at 0x7f5838cee6c0>, <rdkit.Chem.rdchem.Mol object at 0x7f5838ced1c0>, <rdkit.Chem.rdchem.Mol object at 0x7f5838ced690>]","[<rdkit.Chem.rdchem.Mol object at 0x7f5838cee030>, <rdkit.Chem.rdchem.Mol object at 0x7f5838cee420>, <rdkit.Chem.rdchem.Mol object at 0x7f5838cecac0>, <rdkit.Chem.rdchem.Mol object at 0x7f5838cec0b0>, <rdkit.Chem.rdchem.Mol object at 0x7f5838cee570>]","[<rdkit.Chem.rdchem.Mol object at 0x7f5838cee8f0>, <rdkit.Chem.rdchem.Mol object at 0x7f5838ced230>, <rdkit.Chem.rdchem.Mol object at 0x7f5838cee500>, <rdkit.Chem.rdchem.Mol object at 0x7f5838ced310>, <rdkit.Chem.rdchem.Mol object at 0x7f5838cee6c0>, <rdkit.Chem.rdchem.Mol object at 0x7f5838ced1c0>, <rdkit.Chem.rdchem.Mol object at 0x7f5838ced690>, '.', <rdkit.Chem.rdchem.Mol object at 0x7f5838cee030>, <rdkit.Chem.rdchem.Mol object at 0x7f5838cee420>, <rdkit.Chem.rdchem.Mol object at 0x7f5838cecac0>, <rdkit.Chem.rdchem.Mol object at 0x7f5838cec0b0>, <rdkit.Chem.rdchem.Mol object at 0x7f5838cee570>]","[0, 0, 0, 0, 6012, 6013, 6014, 6015, 6016, 6017, 6018, 1, 6019, 6020, 6021, 6022, 6023]"