Donor,Acceptor,HOMO_D_eV,LUMO_D_eV,HOMO_A_eV,LUMO_A_eV,D_A_ratio_m_m,solvent,total_solids_conc_mg_mL,solvent_additive,annealing_temperature,PCE_percent,calc_PCE_percent,Voc_V,FF_percent,Donor_BRICS,Acceptor_BRICS,DA_pair_BRICS,DA_tokenized_BRICS
PBDB-T,FTIC-C6C6,-5.297714285714285,-3.4170000000000003,-5.6,-3.81,1.0,DCB,8.0,DIO,25.0,9.18,9.21,0.91,63.17,"[<rdkit.Chem.rdchem.Mol object at 0x7f5838d8af10>, <rdkit.Chem.rdchem.Mol object at 0x7f5838d8aea0>, <rdkit.Chem.rdchem.Mol object at 0x7f5838d8a180>, <rdkit.Chem.rdchem.Mol object at 0x7f5838d89f50>, <rdkit.Chem.rdchem.Mol object at 0x7f5838d8b060>]","[<rdkit.Chem.rdchem.Mol object at 0x7f5838d8be60>, <rdkit.Chem.rdchem.Mol object at 0x7f5838d8a420>, <rdkit.Chem.rdchem.Mol object at 0x7f5838d89c40>, <rdkit.Chem.rdchem.Mol object at 0x7f5838d8b5a0>]","[<rdkit.Chem.rdchem.Mol object at 0x7f5838d8af10>, <rdkit.Chem.rdchem.Mol object at 0x7f5838d8aea0>, <rdkit.Chem.rdchem.Mol object at 0x7f5838d8a180>, <rdkit.Chem.rdchem.Mol object at 0x7f5838d89f50>, <rdkit.Chem.rdchem.Mol object at 0x7f5838d8b060>, '.', <rdkit.Chem.rdchem.Mol object at 0x7f5838d8be60>, <rdkit.Chem.rdchem.Mol object at 0x7f5838d8a420>, <rdkit.Chem.rdchem.Mol object at 0x7f5838d89c40>, <rdkit.Chem.rdchem.Mol object at 0x7f5838d8b5a0>]","[0, 0, 0, 0, 0, 0, 0, 1908, 1909, 1910, 1911, 1912, 1, 1913, 1914, 1915, 1916]"
PBDB-T,IXIC,-5.297714285714285,-3.4170000000000003,-5.13,-3.78,1.0,CF,14.0,_,100.0,11.3,11.21,0.82,65.4,"[<rdkit.Chem.rdchem.Mol object at 0x7f5838d8bd80>, <rdkit.Chem.rdchem.Mol object at 0x7f5838d8a880>, <rdkit.Chem.rdchem.Mol object at 0x7f5838d8ba70>, <rdkit.Chem.rdchem.Mol object at 0x7f5838d8a0a0>, <rdkit.Chem.rdchem.Mol object at 0x7f5838d949e0>]","[<rdkit.Chem.rdchem.Mol object at 0x7f5838d8b450>, <rdkit.Chem.rdchem.Mol object at 0x7f5838d8a650>, <rdkit.Chem.rdchem.Mol object at 0x7f5838d89d20>, <rdkit.Chem.rdchem.Mol object at 0x7f5838d8b220>, <rdkit.Chem.rdchem.Mol object at 0x7f5838d945f0>]","[<rdkit.Chem.rdchem.Mol object at 0x7f5838d8bd80>, <rdkit.Chem.rdchem.Mol object at 0x7f5838d8a880>, <rdkit.Chem.rdchem.Mol object at 0x7f5838d8ba70>, <rdkit.Chem.rdchem.Mol object at 0x7f5838d8a0a0>, <rdkit.Chem.rdchem.Mol object at 0x7f5838d949e0>, '.', <rdkit.Chem.rdchem.Mol object at 0x7f5838d8b450>, <rdkit.Chem.rdchem.Mol object at 0x7f5838d8a650>, <rdkit.Chem.rdchem.Mol object at 0x7f5838d89d20>, <rdkit.Chem.rdchem.Mol object at 0x7f5838d8b220>, <rdkit.Chem.rdchem.Mol object at 0x7f5838d945f0>]","[0, 0, 0, 0, 0, 0, 1939, 1940, 1941, 1942, 1943, 1, 1944, 1945, 1946, 1947, 1948]"
PBDB-T,IXIC-4Cl,-5.297714285714285,-3.4170000000000003,-5.2,-3.95,1.0,CF,14.0,_,100.0,11.2,11.25,0.69,71.2,"[<rdkit.Chem.rdchem.Mol object at 0x7f5838d8b920>, <rdkit.Chem.rdchem.Mol object at 0x7f5838d94740>, <rdkit.Chem.rdchem.Mol object at 0x7f5838d94cf0>, <rdkit.Chem.rdchem.Mol object at 0x7f5838d94660>, <rdkit.Chem.rdchem.Mol object at 0x7f5838d95000>]","[<rdkit.Chem.rdchem.Mol object at 0x7f5838d8b1b0>, <rdkit.Chem.rdchem.Mol object at 0x7f5838d89cb0>, <rdkit.Chem.rdchem.Mol object at 0x7f5838d8a1f0>, <rdkit.Chem.rdchem.Mol object at 0x7f5838d8bb50>, <rdkit.Chem.rdchem.Mol object at 0x7f5838d942e0>]","[<rdkit.Chem.rdchem.Mol object at 0x7f5838d8b920>, <rdkit.Chem.rdchem.Mol object at 0x7f5838d94740>, <rdkit.Chem.rdchem.Mol object at 0x7f5838d94cf0>, <rdkit.Chem.rdchem.Mol object at 0x7f5838d94660>, <rdkit.Chem.rdchem.Mol object at 0x7f5838d95000>, '.', <rdkit.Chem.rdchem.Mol object at 0x7f5838d8b1b0>, <rdkit.Chem.rdchem.Mol object at 0x7f5838d89cb0>, <rdkit.Chem.rdchem.Mol object at 0x7f5838d8a1f0>, <rdkit.Chem.rdchem.Mol object at 0x7f5838d8bb50>, <rdkit.Chem.rdchem.Mol object at 0x7f5838d942e0>]","[0, 0, 0, 0, 0, 0, 1949, 1950, 1951, 1952, 1953, 1, 1954, 1955, 1956, 1957, 1958]"
HFQx-T,ITTC,-5.45,-3.5,-5.49,-3.85,1.0,CF,18.0,_,130.0,10.4,10.3,0.88,71.0,"[<rdkit.Chem.rdchem.Mol object at 0x7f5838d8bf40>, <rdkit.Chem.rdchem.Mol object at 0x7f5838d8a9d0>, <rdkit.Chem.rdchem.Mol object at 0x7f5838d8a7a0>, <rdkit.Chem.rdchem.Mol object at 0x7f5838d94820>, <rdkit.Chem.rdchem.Mol object at 0x7f5838d946d0>, <rdkit.Chem.rdchem.Mol object at 0x7f5838d94d60>, <rdkit.Chem.rdchem.Mol object at 0x7f5838d95540>, <rdkit.Chem.rdchem.Mol object at 0x7f5838d96570>]","[<rdkit.Chem.rdchem.Mol object at 0x7f5838d8b610>, <rdkit.Chem.rdchem.Mol object at 0x7f5838d96110>, <rdkit.Chem.rdchem.Mol object at 0x7f5838d8a6c0>, <rdkit.Chem.rdchem.Mol object at 0x7f5838d96420>, <rdkit.Chem.rdchem.Mol object at 0x7f5838d95d20>]","[<rdkit.Chem.rdchem.Mol object at 0x7f5838d8bf40>, <rdkit.Chem.rdchem.Mol object at 0x7f5838d8a9d0>, <rdkit.Chem.rdchem.Mol object at 0x7f5838d8a7a0>, <rdkit.Chem.rdchem.Mol object at 0x7f5838d94820>, <rdkit.Chem.rdchem.Mol object at 0x7f5838d946d0>, <rdkit.Chem.rdchem.Mol object at 0x7f5838d94d60>, <rdkit.Chem.rdchem.Mol object at 0x7f5838d95540>, <rdkit.Chem.rdchem.Mol object at 0x7f5838d96570>, '.', <rdkit.Chem.rdchem.Mol object at 0x7f5838d8b610>, <rdkit.Chem.rdchem.Mol object at 0x7f5838d96110>, <rdkit.Chem.rdchem.Mol object at 0x7f5838d8a6c0>, <rdkit.Chem.rdchem.Mol object at 0x7f5838d96420>, <rdkit.Chem.rdchem.Mol object at 0x7f5838d95d20>]","[0, 0, 0, 1959, 1960, 1961, 1962, 1963, 1964, 1965, 1966, 1, 1967, 1968, 1969, 1970, 1971]"
PBDB-T,IT-OM-1,-5.297714285714285,-3.4170000000000003,-5.5,-3.76,1.0,CB,20.0,_,150.0,6.3,6.34,1.01,51.0,"[<rdkit.Chem.rdchem.Mol object at 0x7f5838d8ab20>, <rdkit.Chem.rdchem.Mol object at 0x7f5838d95310>, <rdkit.Chem.rdchem.Mol object at 0x7f5838d96880>, <rdkit.Chem.rdchem.Mol object at 0x7f5838d96500>, <rdkit.Chem.rdchem.Mol object at 0x7f5838d950e0>]","[<rdkit.Chem.rdchem.Mol object at 0x7f5838d8ad50>, <rdkit.Chem.rdchem.Mol object at 0x7f5838d94ac0>, <rdkit.Chem.rdchem.Mol object at 0x7f5838d963b0>, <rdkit.Chem.rdchem.Mol object at 0x7f5838d96f80>, <rdkit.Chem.rdchem.Mol object at 0x7f5838d962d0>, <rdkit.Chem.rdchem.Mol object at 0x7f5838d95620>]","[<rdkit.Chem.rdchem.Mol object at 0x7f5838d8ab20>, <rdkit.Chem.rdchem.Mol object at 0x7f5838d95310>, <rdkit.Chem.rdchem.Mol object at 0x7f5838d96880>, <rdkit.Chem.rdchem.Mol object at 0x7f5838d96500>, <rdkit.Chem.rdchem.Mol object at 0x7f5838d950e0>, '.', <rdkit.Chem.rdchem.Mol object at 0x7f5838d8ad50>, <rdkit.Chem.rdchem.Mol object at 0x7f5838d94ac0>, <rdkit.Chem.rdchem.Mol object at 0x7f5838d963b0>, <rdkit.Chem.rdchem.Mol object at 0x7f5838d96f80>, <rdkit.Chem.rdchem.Mol object at 0x7f5838d962d0>, <rdkit.Chem.rdchem.Mol object at 0x7f5838d95620>]","[0, 0, 0, 0, 0, 1995, 1996, 1997, 1998, 1999, 1, 2000, 2001, 2002, 2003, 2004, 2005]"
PBDB-T,IT-OM-2,-5.297714285714285,-3.4170000000000003,-5.49,-3.86,1.0,CB,20.0,_,150.0,11.8,11.9,0.93,73.0,"[<rdkit.Chem.rdchem.Mol object at 0x7f5838d8b4c0>, <rdkit.Chem.rdchem.Mol object at 0x7f5838d94190>, <rdkit.Chem.rdchem.Mol object at 0x7f5838d96730>, <rdkit.Chem.rdchem.Mol object at 0x7f5838d95d90>, <rdkit.Chem.rdchem.Mol object at 0x7f5838d95770>]","[<rdkit.Chem.rdchem.Mol object at 0x7f5838d8ac00>, <rdkit.Chem.rdchem.Mol object at 0x7f5838d94dd0>, <rdkit.Chem.rdchem.Mol object at 0x7f5838d96340>, <rdkit.Chem.rdchem.Mol object at 0x7f5838d966c0>, <rdkit.Chem.rdchem.Mol object at 0x7f5838d95fc0>, <rdkit.Chem.rdchem.Mol object at 0x7f5838d95b60>]","[<rdkit.Chem.rdchem.Mol object at 0x7f5838d8b4c0>, <rdkit.Chem.rdchem.Mol object at 0x7f5838d94190>, <rdkit.Chem.rdchem.Mol object at 0x7f5838d96730>, <rdkit.Chem.rdchem.Mol object at 0x7f5838d95d90>, <rdkit.Chem.rdchem.Mol object at 0x7f5838d95770>, '.', <rdkit.Chem.rdchem.Mol object at 0x7f5838d8ac00>, <rdkit.Chem.rdchem.Mol object at 0x7f5838d94dd0>, <rdkit.Chem.rdchem.Mol object at 0x7f5838d96340>, <rdkit.Chem.rdchem.Mol object at 0x7f5838d966c0>, <rdkit.Chem.rdchem.Mol object at 0x7f5838d95fc0>, <rdkit.Chem.rdchem.Mol object at 0x7f5838d95b60>]","[0, 0, 0, 0, 0, 2006, 2007, 2008, 2009, 2010, 1, 2011, 2012, 2013, 2014, 2015, 2016]"
PBDB-T,IT-OM-3,-5.297714285714285,-3.4170000000000003,-5.52,-3.8,1.0,CB,20.0,_,150.0,10.8,10.8,0.97,68.0,"[<rdkit.Chem.rdchem.Mol object at 0x7f5838d957e0>, <rdkit.Chem.rdchem.Mol object at 0x7f5838d95cb0>, <rdkit.Chem.rdchem.Mol object at 0x7f5838d96ea0>, <rdkit.Chem.rdchem.Mol object at 0x7f5838d94120>, <rdkit.Chem.rdchem.Mol object at 0x7f5838d96b90>]","[<rdkit.Chem.rdchem.Mol object at 0x7f5838d96490>, <rdkit.Chem.rdchem.Mol object at 0x7f5838d94b30>, <rdkit.Chem.rdchem.Mol object at 0x7f5838d97300>, <rdkit.Chem.rdchem.Mol object at 0x7f5838d95ee0>, <rdkit.Chem.rdchem.Mol object at 0x7f5838d96b20>, <rdkit.Chem.rdchem.Mol object at 0x7f5838d95070>]","[<rdkit.Chem.rdchem.Mol object at 0x7f5838d957e0>, <rdkit.Chem.rdchem.Mol object at 0x7f5838d95cb0>, <rdkit.Chem.rdchem.Mol object at 0x7f5838d96ea0>, <rdkit.Chem.rdchem.Mol object at 0x7f5838d94120>, <rdkit.Chem.rdchem.Mol object at 0x7f5838d96b90>, '.', <rdkit.Chem.rdchem.Mol object at 0x7f5838d96490>, <rdkit.Chem.rdchem.Mol object at 0x7f5838d94b30>, <rdkit.Chem.rdchem.Mol object at 0x7f5838d97300>, <rdkit.Chem.rdchem.Mol object at 0x7f5838d95ee0>, <rdkit.Chem.rdchem.Mol object at 0x7f5838d96b20>, <rdkit.Chem.rdchem.Mol object at 0x7f5838d95070>]","[0, 0, 0, 0, 0, 2017, 2018, 2019, 2020, 2021, 1, 2022, 2023, 2024, 2025, 2026, 2027]"
PBDB-T,ITCT,-5.297714285714285,-3.4170000000000003,-5.596666666666667,-3.796666666666667,1.0,CB,20.0,_,120.0,11.27,10.94,0.85,72.0,"[<rdkit.Chem.rdchem.Mol object at 0x7f5838d943c0>, <rdkit.Chem.rdchem.Mol object at 0x7f5838d96ce0>, <rdkit.Chem.rdchem.Mol object at 0x7f5838d97920>, <rdkit.Chem.rdchem.Mol object at 0x7f5838d955b0>, <rdkit.Chem.rdchem.Mol object at 0x7f5838d968f0>]","[<rdkit.Chem.rdchem.Mol object at 0x7f5838d959a0>, <rdkit.Chem.rdchem.Mol object at 0x7f5838d96650>, <rdkit.Chem.rdchem.Mol object at 0x7f5838d975a0>, <rdkit.Chem.rdchem.Mol object at 0x7f5838d94580>, <rdkit.Chem.rdchem.Mol object at 0x7f5838d97ae0>]","[<rdkit.Chem.rdchem.Mol object at 0x7f5838d943c0>, <rdkit.Chem.rdchem.Mol object at 0x7f5838d96ce0>, <rdkit.Chem.rdchem.Mol object at 0x7f5838d97920>, <rdkit.Chem.rdchem.Mol object at 0x7f5838d955b0>, <rdkit.Chem.rdchem.Mol object at 0x7f5838d968f0>, '.', <rdkit.Chem.rdchem.Mol object at 0x7f5838d959a0>, <rdkit.Chem.rdchem.Mol object at 0x7f5838d96650>, <rdkit.Chem.rdchem.Mol object at 0x7f5838d975a0>, <rdkit.Chem.rdchem.Mol object at 0x7f5838d94580>, <rdkit.Chem.rdchem.Mol object at 0x7f5838d97ae0>]","[0, 0, 0, 0, 0, 0, 2049, 2050, 2051, 2052, 2053, 1, 2054, 2055, 2056, 2057, 2058]"
PBDB-T,ITCPTC-Th,-5.297714285714285,-3.4170000000000003,-5.68,-4.03,1.0,CB,20.0,DIO,25.0,10.61,10.61,0.856,72.7,"[<rdkit.Chem.rdchem.Mol object at 0x7f5838d95850>, <rdkit.Chem.rdchem.Mol object at 0x7f5838d97d10>, <rdkit.Chem.rdchem.Mol object at 0x7f5838d952a0>, <rdkit.Chem.rdchem.Mol object at 0x7f5838d97140>, <rdkit.Chem.rdchem.Mol object at 0x7f5838d98120>]","[<rdkit.Chem.rdchem.Mol object at 0x7f5838d94c10>, <rdkit.Chem.rdchem.Mol object at 0x7f5838d97220>, <rdkit.Chem.rdchem.Mol object at 0x7f5838d97c30>, <rdkit.Chem.rdchem.Mol object at 0x7f5838d97990>, <rdkit.Chem.rdchem.Mol object at 0x7f5838d95690>]","[<rdkit.Chem.rdchem.Mol object at 0x7f5838d95850>, <rdkit.Chem.rdchem.Mol object at 0x7f5838d97d10>, <rdkit.Chem.rdchem.Mol object at 0x7f5838d952a0>, <rdkit.Chem.rdchem.Mol object at 0x7f5838d97140>, <rdkit.Chem.rdchem.Mol object at 0x7f5838d98120>, '.', <rdkit.Chem.rdchem.Mol object at 0x7f5838d94c10>, <rdkit.Chem.rdchem.Mol object at 0x7f5838d97220>, <rdkit.Chem.rdchem.Mol object at 0x7f5838d97c30>, <rdkit.Chem.rdchem.Mol object at 0x7f5838d97990>, <rdkit.Chem.rdchem.Mol object at 0x7f5838d95690>]","[0, 0, 0, 0, 0, 0, 2059, 2060, 2061, 2062, 2063, 1, 2064, 2065, 2066, 2067, 2068]"
PBDB-T,ITCPTC-Se,-5.297714285714285,-3.4170000000000003,-5.65,-4.0,1.0,CB,20.0,DIO,25.0,9.02,9.02,0.869,68.3,"[<rdkit.Chem.rdchem.Mol object at 0x7f5838d94900>, <rdkit.Chem.rdchem.Mol object at 0x7f5838d97a00>, <rdkit.Chem.rdchem.Mol object at 0x7f5838d94eb0>, <rdkit.Chem.rdchem.Mol object at 0x7f5838d96dc0>, <rdkit.Chem.rdchem.Mol object at 0x7f5838d98040>]","[<rdkit.Chem.rdchem.Mol object at 0x7f5838d97df0>, <rdkit.Chem.rdchem.Mol object at 0x7f5838d97450>, <rdkit.Chem.rdchem.Mol object at 0x7f5838d97ed0>, <rdkit.Chem.rdchem.Mol object at 0x7f5838d97760>]","[<rdkit.Chem.rdchem.Mol object at 0x7f5838d94900>, <rdkit.Chem.rdchem.Mol object at 0x7f5838d97a00>, <rdkit.Chem.rdchem.Mol object at 0x7f5838d94eb0>, <rdkit.Chem.rdchem.Mol object at 0x7f5838d96dc0>, <rdkit.Chem.rdchem.Mol object at 0x7f5838d98040>, '.', <rdkit.Chem.rdchem.Mol object at 0x7f5838d97df0>, <rdkit.Chem.rdchem.Mol object at 0x7f5838d97450>, <rdkit.Chem.rdchem.Mol object at 0x7f5838d97ed0>, <rdkit.Chem.rdchem.Mol object at 0x7f5838d97760>]","[0, 0, 0, 0, 0, 0, 0, 2069, 2070, 2071, 2072, 2073, 1, 2074, 2075, 2076, 2077]"
PTB7-Th,IEICO-4F,-5.204782608695651,-3.5391891891891896,-5.309971428571429,-3.851028571428572,0.667,CB,37.5,DIO,100.0,11.13,11.13,0.72,61.45,"[<rdkit.Chem.rdchem.Mol object at 0x7f5838d97d80>, <rdkit.Chem.rdchem.Mol object at 0x7f5838d94a50>, <rdkit.Chem.rdchem.Mol object at 0x7f5838d954d0>, <rdkit.Chem.rdchem.Mol object at 0x7f5838d97680>, <rdkit.Chem.rdchem.Mol object at 0x7f5838d96d50>, <rdkit.Chem.rdchem.Mol object at 0x7f5838d97f40>, <rdkit.Chem.rdchem.Mol object at 0x7f5838d98580>]","[<rdkit.Chem.rdchem.Mol object at 0x7f5838d96030>, <rdkit.Chem.rdchem.Mol object at 0x7f5838d974c0>, <rdkit.Chem.rdchem.Mol object at 0x7f5838d97610>, <rdkit.Chem.rdchem.Mol object at 0x7f5838d976f0>, <rdkit.Chem.rdchem.Mol object at 0x7f5838d97b50>, <rdkit.Chem.rdchem.Mol object at 0x7f5838d98510>, <rdkit.Chem.rdchem.Mol object at 0x7f5838d98dd0>, <rdkit.Chem.rdchem.Mol object at 0x7f5838d98d60>]","[<rdkit.Chem.rdchem.Mol object at 0x7f5838d97d80>, <rdkit.Chem.rdchem.Mol object at 0x7f5838d94a50>, <rdkit.Chem.rdchem.Mol object at 0x7f5838d954d0>, <rdkit.Chem.rdchem.Mol object at 0x7f5838d97680>, <rdkit.Chem.rdchem.Mol object at 0x7f5838d96d50>, <rdkit.Chem.rdchem.Mol object at 0x7f5838d97f40>, <rdkit.Chem.rdchem.Mol object at 0x7f5838d98580>, '.', <rdkit.Chem.rdchem.Mol object at 0x7f5838d96030>, <rdkit.Chem.rdchem.Mol object at 0x7f5838d974c0>, <rdkit.Chem.rdchem.Mol object at 0x7f5838d97610>, <rdkit.Chem.rdchem.Mol object at 0x7f5838d976f0>, <rdkit.Chem.rdchem.Mol object at 0x7f5838d97b50>, <rdkit.Chem.rdchem.Mol object at 0x7f5838d98510>, <rdkit.Chem.rdchem.Mol object at 0x7f5838d98dd0>, <rdkit.Chem.rdchem.Mol object at 0x7f5838d98d60>]","[0, 2078, 2079, 2080, 2081, 2082, 2083, 2084, 1, 2085, 2086, 2087, 2088, 2089, 2090, 2091, 2092]"
PBDB-T,ITCC,-5.297714285714285,-3.4170000000000003,-5.47,-3.76,1.0,CB,20.0,DIO,100.0,11.28,11.28,0.98,71.32,"[<rdkit.Chem.rdchem.Mol object at 0x7f5838d977d0>, <rdkit.Chem.rdchem.Mol object at 0x7f5838d989e0>, <rdkit.Chem.rdchem.Mol object at 0x7f5838d98900>, <rdkit.Chem.rdchem.Mol object at 0x7f5838d98cf0>, <rdkit.Chem.rdchem.Mol object at 0x7f5838d99460>]","[<rdkit.Chem.rdchem.Mol object at 0x7f5838d971b0>, <rdkit.Chem.rdchem.Mol object at 0x7f5838d99690>, <rdkit.Chem.rdchem.Mol object at 0x7f5838d96e30>, <rdkit.Chem.rdchem.Mol object at 0x7f5838d95af0>, <rdkit.Chem.rdchem.Mol object at 0x7f5838d98430>]","[<rdkit.Chem.rdchem.Mol object at 0x7f5838d977d0>, <rdkit.Chem.rdchem.Mol object at 0x7f5838d989e0>, <rdkit.Chem.rdchem.Mol object at 0x7f5838d98900>, <rdkit.Chem.rdchem.Mol object at 0x7f5838d98cf0>, <rdkit.Chem.rdchem.Mol object at 0x7f5838d99460>, '.', <rdkit.Chem.rdchem.Mol object at 0x7f5838d971b0>, <rdkit.Chem.rdchem.Mol object at 0x7f5838d99690>, <rdkit.Chem.rdchem.Mol object at 0x7f5838d96e30>, <rdkit.Chem.rdchem.Mol object at 0x7f5838d95af0>, <rdkit.Chem.rdchem.Mol object at 0x7f5838d98430>]","[0, 0, 0, 0, 0, 0, 2093, 2094, 2095, 2096, 2097, 1, 2098, 2099, 2100, 2101, 2102]"
PTB7-Th,IFTIC,-5.204782608695651,-3.5391891891891896,-5.42,-3.85,0.5,o-DCB,25.0,_,25.0,5.77,5.71,0.9,53.5,"[<rdkit.Chem.rdchem.Mol object at 0x7f5838d973e0>, <rdkit.Chem.rdchem.Mol object at 0x7f5838d95380>, <rdkit.Chem.rdchem.Mol object at 0x7f5838d97bc0>, <rdkit.Chem.rdchem.Mol object at 0x7f5838d98190>, <rdkit.Chem.rdchem.Mol object at 0x7f5838d99a80>, <rdkit.Chem.rdchem.Mol object at 0x7f5838d99150>, <rdkit.Chem.rdchem.Mol object at 0x7f5838d997e0>]","[<rdkit.Chem.rdchem.Mol object at 0x7f5838d99230>, <rdkit.Chem.rdchem.Mol object at 0x7f5838d985f0>, <rdkit.Chem.rdchem.Mol object at 0x7f5838d983c0>, <rdkit.Chem.rdchem.Mol object at 0x7f5838d992a0>, <rdkit.Chem.rdchem.Mol object at 0x7f5838d999a0>]","[<rdkit.Chem.rdchem.Mol object at 0x7f5838d973e0>, <rdkit.Chem.rdchem.Mol object at 0x7f5838d95380>, <rdkit.Chem.rdchem.Mol object at 0x7f5838d97bc0>, <rdkit.Chem.rdchem.Mol object at 0x7f5838d98190>, <rdkit.Chem.rdchem.Mol object at 0x7f5838d99a80>, <rdkit.Chem.rdchem.Mol object at 0x7f5838d99150>, <rdkit.Chem.rdchem.Mol object at 0x7f5838d997e0>, '.', <rdkit.Chem.rdchem.Mol object at 0x7f5838d99230>, <rdkit.Chem.rdchem.Mol object at 0x7f5838d985f0>, <rdkit.Chem.rdchem.Mol object at 0x7f5838d983c0>, <rdkit.Chem.rdchem.Mol object at 0x7f5838d992a0>, <rdkit.Chem.rdchem.Mol object at 0x7f5838d999a0>]","[0, 0, 0, 0, 2113, 2114, 2115, 2116, 2117, 2118, 2119, 1, 2120, 2121, 2122, 2123, 2124]"
PBDTTT-C-T,IDT-2BM,-5.128,-3.268,-5.586666666666666,-4.083333333333333,1.5,o-DCB,30.0,CN,25.0,4.19,4.06,0.76,54.4,"[<rdkit.Chem.rdchem.Mol object at 0x7f5838d97e60>, <rdkit.Chem.rdchem.Mol object at 0x7f5838d99770>, <rdkit.Chem.rdchem.Mol object at 0x7f5838d99c40>, <rdkit.Chem.rdchem.Mol object at 0x7f5838d98a50>, <rdkit.Chem.rdchem.Mol object at 0x7f5838d98c80>]","[<rdkit.Chem.rdchem.Mol object at 0x7f5838d987b0>, <rdkit.Chem.rdchem.Mol object at 0x7f5838d994d0>, <rdkit.Chem.rdchem.Mol object at 0x7f5838d98ac0>, <rdkit.Chem.rdchem.Mol object at 0x7f5838d99540>, <rdkit.Chem.rdchem.Mol object at 0x7f5838d99bd0>]","[<rdkit.Chem.rdchem.Mol object at 0x7f5838d97e60>, <rdkit.Chem.rdchem.Mol object at 0x7f5838d99770>, <rdkit.Chem.rdchem.Mol object at 0x7f5838d99c40>, <rdkit.Chem.rdchem.Mol object at 0x7f5838d98a50>, <rdkit.Chem.rdchem.Mol object at 0x7f5838d98c80>, '.', <rdkit.Chem.rdchem.Mol object at 0x7f5838d987b0>, <rdkit.Chem.rdchem.Mol object at 0x7f5838d994d0>, <rdkit.Chem.rdchem.Mol object at 0x7f5838d98ac0>, <rdkit.Chem.rdchem.Mol object at 0x7f5838d99540>, <rdkit.Chem.rdchem.Mol object at 0x7f5838d99bd0>]","[0, 0, 0, 0, 0, 0, 2125, 2126, 2127, 2128, 2129, 1, 2130, 2131, 2132, 2133, 2134]"
PBDB-T,IDT-Tz,-5.297714285714285,-3.4170000000000003,-5.62,-4.09,1.0,CB,10.0,CN,25.0,8.52,8.52,0.88,70.8,"[<rdkit.Chem.rdchem.Mol object at 0x7f5838d9a880>, <rdkit.Chem.rdchem.Mol object at 0x7f5838d9a0a0>, <rdkit.Chem.rdchem.Mol object at 0x7f5838d986d0>, <rdkit.Chem.rdchem.Mol object at 0x7f5838d9a1f0>, <rdkit.Chem.rdchem.Mol object at 0x7f5838d9b1b0>]","[<rdkit.Chem.rdchem.Mol object at 0x7f5838d9b3e0>, <rdkit.Chem.rdchem.Mol object at 0x7f5838d9a650>, <rdkit.Chem.rdchem.Mol object at 0x7f5838d984a0>, <rdkit.Chem.rdchem.Mol object at 0x7f5838d9a9d0>, <rdkit.Chem.rdchem.Mol object at 0x7f5838d9a960>, <rdkit.Chem.rdchem.Mol object at 0x7f5838d9a570>]","[<rdkit.Chem.rdchem.Mol object at 0x7f5838d9a880>, <rdkit.Chem.rdchem.Mol object at 0x7f5838d9a0a0>, <rdkit.Chem.rdchem.Mol object at 0x7f5838d986d0>, <rdkit.Chem.rdchem.Mol object at 0x7f5838d9a1f0>, <rdkit.Chem.rdchem.Mol object at 0x7f5838d9b1b0>, '.', <rdkit.Chem.rdchem.Mol object at 0x7f5838d9b3e0>, <rdkit.Chem.rdchem.Mol object at 0x7f5838d9a650>, <rdkit.Chem.rdchem.Mol object at 0x7f5838d984a0>, <rdkit.Chem.rdchem.Mol object at 0x7f5838d9a9d0>, <rdkit.Chem.rdchem.Mol object at 0x7f5838d9a960>, <rdkit.Chem.rdchem.Mol object at 0x7f5838d9a570>]","[0, 0, 0, 0, 0, 2158, 2159, 2160, 2161, 2162, 1, 2163, 2164, 2165, 2166, 2167, 2168]"