Donor,Acceptor,HOMO_D_eV,LUMO_D_eV,HOMO_A_eV,LUMO_A_eV,D_A_ratio_m_m,solvent,total_solids_conc_mg_mL,solvent_additive,annealing_temperature,PCE_percent,calc_PCE_percent,Voc_V,FF_percent,Donor_BRICS,Acceptor_BRICS,DA_pair_BRICS,DA_tokenized_BRICS
J52,m-ITIC,-5.218571428571429,-3.341428571428572,-5.526666666666667,-3.8515384615384622,0.667,CF,12.0,_,150.0,5.98,5.98,0.701,49.73,"[<rdkit.Chem.rdchem.Mol object at 0x7f5838f2f140>, <rdkit.Chem.rdchem.Mol object at 0x7f5838f2ed50>, <rdkit.Chem.rdchem.Mol object at 0x7f5838f2f3e0>, <rdkit.Chem.rdchem.Mol object at 0x7f5838f2da10>, <rdkit.Chem.rdchem.Mol object at 0x7f5838f2f060>, <rdkit.Chem.rdchem.Mol object at 0x7f5838f2f8b0>]","[<rdkit.Chem.rdchem.Mol object at 0x7f5838f2f680>, <rdkit.Chem.rdchem.Mol object at 0x7f5838f2eb90>, <rdkit.Chem.rdchem.Mol object at 0x7f5838f2ef80>, <rdkit.Chem.rdchem.Mol object at 0x7f5838f2f300>, <rdkit.Chem.rdchem.Mol object at 0x7f5838f2dfc0>]","[<rdkit.Chem.rdchem.Mol object at 0x7f5838f2f140>, <rdkit.Chem.rdchem.Mol object at 0x7f5838f2ed50>, <rdkit.Chem.rdchem.Mol object at 0x7f5838f2f3e0>, <rdkit.Chem.rdchem.Mol object at 0x7f5838f2da10>, <rdkit.Chem.rdchem.Mol object at 0x7f5838f2f060>, <rdkit.Chem.rdchem.Mol object at 0x7f5838f2f8b0>, '.', <rdkit.Chem.rdchem.Mol object at 0x7f5838f2f680>, <rdkit.Chem.rdchem.Mol object at 0x7f5838f2eb90>, <rdkit.Chem.rdchem.Mol object at 0x7f5838f2ef80>, <rdkit.Chem.rdchem.Mol object at 0x7f5838f2f300>, <rdkit.Chem.rdchem.Mol object at 0x7f5838f2dfc0>]","[0, 0, 0, 0, 0, 927, 928, 929, 930, 931, 932, 1, 933, 934, 935, 936, 937]"
J61,TP21,-5.303333333333334,-3.151666666666667,-5.46,-3.61,1.0,CB,20.0,_,140.0,5.81,5.85,1.05,51.0,"[<rdkit.Chem.rdchem.Mol object at 0x7f5838f2e420>, <rdkit.Chem.rdchem.Mol object at 0x7f5838f2e730>, <rdkit.Chem.rdchem.Mol object at 0x7f5838f2ef10>, <rdkit.Chem.rdchem.Mol object at 0x7f5838f38900>, <rdkit.Chem.rdchem.Mol object at 0x7f5838f38580>, <rdkit.Chem.rdchem.Mol object at 0x7f5838f38510>, <rdkit.Chem.rdchem.Mol object at 0x7f5838f38d60>]","[<rdkit.Chem.rdchem.Mol object at 0x7f5838f2eff0>, <rdkit.Chem.rdchem.Mol object at 0x7f5838f2e6c0>, <rdkit.Chem.rdchem.Mol object at 0x7f5838f2f6f0>, <rdkit.Chem.rdchem.Mol object at 0x7f5838f38f20>, <rdkit.Chem.rdchem.Mol object at 0x7f5838f38660>, <rdkit.Chem.rdchem.Mol object at 0x7f5838f38c10>]","[<rdkit.Chem.rdchem.Mol object at 0x7f5838f2e420>, <rdkit.Chem.rdchem.Mol object at 0x7f5838f2e730>, <rdkit.Chem.rdchem.Mol object at 0x7f5838f2ef10>, <rdkit.Chem.rdchem.Mol object at 0x7f5838f38900>, <rdkit.Chem.rdchem.Mol object at 0x7f5838f38580>, <rdkit.Chem.rdchem.Mol object at 0x7f5838f38510>, <rdkit.Chem.rdchem.Mol object at 0x7f5838f38d60>, '.', <rdkit.Chem.rdchem.Mol object at 0x7f5838f2eff0>, <rdkit.Chem.rdchem.Mol object at 0x7f5838f2e6c0>, <rdkit.Chem.rdchem.Mol object at 0x7f5838f2f6f0>, <rdkit.Chem.rdchem.Mol object at 0x7f5838f38f20>, <rdkit.Chem.rdchem.Mol object at 0x7f5838f38660>, <rdkit.Chem.rdchem.Mol object at 0x7f5838f38c10>]","[0, 0, 0, 971, 972, 973, 974, 975, 976, 977, 1, 978, 979, 980, 981, 982, 983]"
FTAZ,IOIC2,-5.43,-3.3200000000000003,-5.41,-3.78,0.667,CF,13.5,DIO,25.0,12.3,12.29,0.9,69.3,"[<rdkit.Chem.rdchem.Mol object at 0x7f5838f2fa00>, <rdkit.Chem.rdchem.Mol object at 0x7f5838f39000>, <rdkit.Chem.rdchem.Mol object at 0x7f5838f2fae0>, <rdkit.Chem.rdchem.Mol object at 0x7f5838f38970>, <rdkit.Chem.rdchem.Mol object at 0x7f5838f38740>, <rdkit.Chem.rdchem.Mol object at 0x7f5838f383c0>]","[<rdkit.Chem.rdchem.Mol object at 0x7f5838f38040>, <rdkit.Chem.rdchem.Mol object at 0x7f5838f39070>, <rdkit.Chem.rdchem.Mol object at 0x7f5838f389e0>, <rdkit.Chem.rdchem.Mol object at 0x7f5838f38f90>, <rdkit.Chem.rdchem.Mol object at 0x7f5838f3a880>]","[<rdkit.Chem.rdchem.Mol object at 0x7f5838f2fa00>, <rdkit.Chem.rdchem.Mol object at 0x7f5838f39000>, <rdkit.Chem.rdchem.Mol object at 0x7f5838f2fae0>, <rdkit.Chem.rdchem.Mol object at 0x7f5838f38970>, <rdkit.Chem.rdchem.Mol object at 0x7f5838f38740>, <rdkit.Chem.rdchem.Mol object at 0x7f5838f383c0>, '.', <rdkit.Chem.rdchem.Mol object at 0x7f5838f38040>, <rdkit.Chem.rdchem.Mol object at 0x7f5838f39070>, <rdkit.Chem.rdchem.Mol object at 0x7f5838f389e0>, <rdkit.Chem.rdchem.Mol object at 0x7f5838f38f90>, <rdkit.Chem.rdchem.Mol object at 0x7f5838f3a880>]","[0, 0, 0, 0, 0, 995, 996, 997, 998, 999, 1000, 1, 1001, 1002, 1003, 1004, 1005]"
PBQ-0F,ITIC,-5.18,-3.48,-5.574146341463415,-3.915,1.0,THF,12.0,isopropanol,160.0,6.68,6.68,0.69,59.91,"[<rdkit.Chem.rdchem.Mol object at 0x7f5838f2e9d0>, <rdkit.Chem.rdchem.Mol object at 0x7f5838f3a8f0>, <rdkit.Chem.rdchem.Mol object at 0x7f5838f3ab20>, <rdkit.Chem.rdchem.Mol object at 0x7f5838f3a0a0>, <rdkit.Chem.rdchem.Mol object at 0x7f5838f3a500>, <rdkit.Chem.rdchem.Mol object at 0x7f5838f3a260>, <rdkit.Chem.rdchem.Mol object at 0x7f5838f39af0>, <rdkit.Chem.rdchem.Mol object at 0x7f5838f3b0d0>]","[<rdkit.Chem.rdchem.Mol object at 0x7f5838f38200>, <rdkit.Chem.rdchem.Mol object at 0x7f5838f38e40>, <rdkit.Chem.rdchem.Mol object at 0x7f5838f3af80>, <rdkit.Chem.rdchem.Mol object at 0x7f5838f387b0>, <rdkit.Chem.rdchem.Mol object at 0x7f5838f39540>]","[<rdkit.Chem.rdchem.Mol object at 0x7f5838f2e9d0>, <rdkit.Chem.rdchem.Mol object at 0x7f5838f3a8f0>, <rdkit.Chem.rdchem.Mol object at 0x7f5838f3ab20>, <rdkit.Chem.rdchem.Mol object at 0x7f5838f3a0a0>, <rdkit.Chem.rdchem.Mol object at 0x7f5838f3a500>, <rdkit.Chem.rdchem.Mol object at 0x7f5838f3a260>, <rdkit.Chem.rdchem.Mol object at 0x7f5838f39af0>, <rdkit.Chem.rdchem.Mol object at 0x7f5838f3b0d0>, '.', <rdkit.Chem.rdchem.Mol object at 0x7f5838f38200>, <rdkit.Chem.rdchem.Mol object at 0x7f5838f38e40>, <rdkit.Chem.rdchem.Mol object at 0x7f5838f3af80>, <rdkit.Chem.rdchem.Mol object at 0x7f5838f387b0>, <rdkit.Chem.rdchem.Mol object at 0x7f5838f39540>]","[0, 0, 0, 1006, 1007, 1008, 1009, 1010, 1011, 1012, 1013, 1, 1014, 1015, 1016, 1017, 1018]"
PBQ-QF,ITIC,-5.34,-3.62,-5.574146341463415,-3.915,1.0,THF,12.0,isopropanol,160.0,8.9,8.9,0.83,62.49,"[<rdkit.Chem.rdchem.Mol object at 0x7f5838f39930>, <rdkit.Chem.rdchem.Mol object at 0x7f5838f39380>, <rdkit.Chem.rdchem.Mol object at 0x7f5838f39770>, <rdkit.Chem.rdchem.Mol object at 0x7f5838f38270>, <rdkit.Chem.rdchem.Mol object at 0x7f5838f398c0>, <rdkit.Chem.rdchem.Mol object at 0x7f5838f39d20>, <rdkit.Chem.rdchem.Mol object at 0x7f5838f3a490>, <rdkit.Chem.rdchem.Mol object at 0x7f5838f3b840>]","[<rdkit.Chem.rdchem.Mol object at 0x7f5838f3b680>, <rdkit.Chem.rdchem.Mol object at 0x7f5838f39150>, <rdkit.Chem.rdchem.Mol object at 0x7f5838f3b450>, <rdkit.Chem.rdchem.Mol object at 0x7f5838f39230>, <rdkit.Chem.rdchem.Mol object at 0x7f5838f3ac70>]","[<rdkit.Chem.rdchem.Mol object at 0x7f5838f39930>, <rdkit.Chem.rdchem.Mol object at 0x7f5838f39380>, <rdkit.Chem.rdchem.Mol object at 0x7f5838f39770>, <rdkit.Chem.rdchem.Mol object at 0x7f5838f38270>, <rdkit.Chem.rdchem.Mol object at 0x7f5838f398c0>, <rdkit.Chem.rdchem.Mol object at 0x7f5838f39d20>, <rdkit.Chem.rdchem.Mol object at 0x7f5838f3a490>, <rdkit.Chem.rdchem.Mol object at 0x7f5838f3b840>, '.', <rdkit.Chem.rdchem.Mol object at 0x7f5838f3b680>, <rdkit.Chem.rdchem.Mol object at 0x7f5838f39150>, <rdkit.Chem.rdchem.Mol object at 0x7f5838f3b450>, <rdkit.Chem.rdchem.Mol object at 0x7f5838f39230>, <rdkit.Chem.rdchem.Mol object at 0x7f5838f3ac70>]","[0, 0, 0, 1019, 1020, 1021, 1022, 1023, 1024, 1025, 1026, 1, 1027, 1028, 1029, 1030, 1031]"
PBQ-4F,ITIC,-5.49,-3.7,-5.574146341463415,-3.915,1.0,THF,12.0,isopropanol,160.0,11.34,11.34,0.95,66.8,"[<rdkit.Chem.rdchem.Mol object at 0x7f5838f3aab0>, <rdkit.Chem.rdchem.Mol object at 0x7f5838f3aa40>, <rdkit.Chem.rdchem.Mol object at 0x7f5838f3ab90>, <rdkit.Chem.rdchem.Mol object at 0x7f5838f3a650>, <rdkit.Chem.rdchem.Mol object at 0x7f5838f3b7d0>, <rdkit.Chem.rdchem.Mol object at 0x7f5838f39bd0>, <rdkit.Chem.rdchem.Mol object at 0x7f5838f3aff0>, <rdkit.Chem.rdchem.Mol object at 0x7f5838f384a0>, <rdkit.Chem.rdchem.Mol object at 0x7f5838f3bdf0>]","[<rdkit.Chem.rdchem.Mol object at 0x7f5838f3bbc0>, <rdkit.Chem.rdchem.Mol object at 0x7f5838f3b300>, <rdkit.Chem.rdchem.Mol object at 0x7f5838f3b990>, <rdkit.Chem.rdchem.Mol object at 0x7f5838f3b3e0>, <rdkit.Chem.rdchem.Mol object at 0x7f5838f39310>]","[<rdkit.Chem.rdchem.Mol object at 0x7f5838f3aab0>, <rdkit.Chem.rdchem.Mol object at 0x7f5838f3aa40>, <rdkit.Chem.rdchem.Mol object at 0x7f5838f3ab90>, <rdkit.Chem.rdchem.Mol object at 0x7f5838f3a650>, <rdkit.Chem.rdchem.Mol object at 0x7f5838f3b7d0>, <rdkit.Chem.rdchem.Mol object at 0x7f5838f39bd0>, <rdkit.Chem.rdchem.Mol object at 0x7f5838f3aff0>, <rdkit.Chem.rdchem.Mol object at 0x7f5838f384a0>, <rdkit.Chem.rdchem.Mol object at 0x7f5838f3bdf0>, '.', <rdkit.Chem.rdchem.Mol object at 0x7f5838f3bbc0>, <rdkit.Chem.rdchem.Mol object at 0x7f5838f3b300>, <rdkit.Chem.rdchem.Mol object at 0x7f5838f3b990>, <rdkit.Chem.rdchem.Mol object at 0x7f5838f3b3e0>, <rdkit.Chem.rdchem.Mol object at 0x7f5838f39310>]","[0, 0, 1032, 1033, 1034, 1035, 1036, 1037, 1038, 1039, 1040, 1, 1041, 1042, 1043, 1044, 1045]"
PBTA-TF,ITCC,-5.36,-3.4200000000000004,-5.47,-3.76,1.0,CF,16.0,DIO,25.0,10.4,10.41,1.0,67.0,"[<rdkit.Chem.rdchem.Mol object at 0x7f5838f2f840>, <rdkit.Chem.rdchem.Mol object at 0x7f5838f39f50>, <rdkit.Chem.rdchem.Mol object at 0x7f5838f39a80>, <rdkit.Chem.rdchem.Mol object at 0x7f5838f3a6c0>, <rdkit.Chem.rdchem.Mol object at 0x7f5838f382e0>, <rdkit.Chem.rdchem.Mol object at 0x7f5838f39700>, <rdkit.Chem.rdchem.Mol object at 0x7f5838f399a0>]","[<rdkit.Chem.rdchem.Mol object at 0x7f5838f39cb0>, <rdkit.Chem.rdchem.Mol object at 0x7f5838f3b920>, <rdkit.Chem.rdchem.Mol object at 0x7f5838f3bae0>, <rdkit.Chem.rdchem.Mol object at 0x7f5838f3adc0>, <rdkit.Chem.rdchem.Mol object at 0x7f5838f390e0>]","[<rdkit.Chem.rdchem.Mol object at 0x7f5838f2f840>, <rdkit.Chem.rdchem.Mol object at 0x7f5838f39f50>, <rdkit.Chem.rdchem.Mol object at 0x7f5838f39a80>, <rdkit.Chem.rdchem.Mol object at 0x7f5838f3a6c0>, <rdkit.Chem.rdchem.Mol object at 0x7f5838f382e0>, <rdkit.Chem.rdchem.Mol object at 0x7f5838f39700>, <rdkit.Chem.rdchem.Mol object at 0x7f5838f399a0>, '.', <rdkit.Chem.rdchem.Mol object at 0x7f5838f39cb0>, <rdkit.Chem.rdchem.Mol object at 0x7f5838f3b920>, <rdkit.Chem.rdchem.Mol object at 0x7f5838f3bae0>, <rdkit.Chem.rdchem.Mol object at 0x7f5838f3adc0>, <rdkit.Chem.rdchem.Mol object at 0x7f5838f390e0>]","[0, 0, 0, 0, 1046, 1047, 1048, 1049, 1050, 1051, 1052, 1, 1053, 1054, 1055, 1056, 1057]"
PBTA-TF,IT-4F,-5.36,-3.4200000000000004,-5.66875,-4.060416666666667,1.0,CF,16.0,DIO,25.0,10.6,10.64,0.73,72.0,"[<rdkit.Chem.rdchem.Mol object at 0x7f5838f3bd10>, <rdkit.Chem.rdchem.Mol object at 0x7f5838f38190>, <rdkit.Chem.rdchem.Mol object at 0x7f5838f394d0>, <rdkit.Chem.rdchem.Mol object at 0x7f5838f39460>, <rdkit.Chem.rdchem.Mol object at 0x7f5838f3ac00>, <rdkit.Chem.rdchem.Mol object at 0x7f5838f3a2d0>, <rdkit.Chem.rdchem.Mol object at 0x7f5838f38430>]","[<rdkit.Chem.rdchem.Mol object at 0x7f5838f3a110>, <rdkit.Chem.rdchem.Mol object at 0x7f5838f3ad50>, <rdkit.Chem.rdchem.Mol object at 0x7f5838f3a420>, <rdkit.Chem.rdchem.Mol object at 0x7f5838f38ba0>, <rdkit.Chem.rdchem.Mol object at 0x7f5838f39620>]","[<rdkit.Chem.rdchem.Mol object at 0x7f5838f3bd10>, <rdkit.Chem.rdchem.Mol object at 0x7f5838f38190>, <rdkit.Chem.rdchem.Mol object at 0x7f5838f394d0>, <rdkit.Chem.rdchem.Mol object at 0x7f5838f39460>, <rdkit.Chem.rdchem.Mol object at 0x7f5838f3ac00>, <rdkit.Chem.rdchem.Mol object at 0x7f5838f3a2d0>, <rdkit.Chem.rdchem.Mol object at 0x7f5838f38430>, '.', <rdkit.Chem.rdchem.Mol object at 0x7f5838f3a110>, <rdkit.Chem.rdchem.Mol object at 0x7f5838f3ad50>, <rdkit.Chem.rdchem.Mol object at 0x7f5838f3a420>, <rdkit.Chem.rdchem.Mol object at 0x7f5838f38ba0>, <rdkit.Chem.rdchem.Mol object at 0x7f5838f39620>]","[0, 0, 0, 0, 1070, 1071, 1072, 1073, 1074, 1075, 1076, 1, 1077, 1078, 1079, 1080, 1081]"
PBTA-TF,IT-M,-5.36,-3.4200000000000004,-5.513571428571429,-3.808,1.0,THF,16.0,isopropanol,25.0,12.0,11.82,0.96,67.0,"[<rdkit.Chem.rdchem.Mol object at 0x7f5838f3ba70>, <rdkit.Chem.rdchem.Mol object at 0x7f5838f3a030>, <rdkit.Chem.rdchem.Mol object at 0x7f5838f3b6f0>, <rdkit.Chem.rdchem.Mol object at 0x7f5838f38cf0>, <rdkit.Chem.rdchem.Mol object at 0x7f5838f3b290>, <rdkit.Chem.rdchem.Mol object at 0x7f5838f3b060>, <rdkit.Chem.rdchem.Mol object at 0x7f5838f3b1b0>]","[<rdkit.Chem.rdchem.Mol object at 0x7f5838f393f0>, <rdkit.Chem.rdchem.Mol object at 0x7f5838f3a810>, <rdkit.Chem.rdchem.Mol object at 0x7f5838f3a5e0>, <rdkit.Chem.rdchem.Mol object at 0x7f5838f3b610>, <rdkit.Chem.rdchem.Mol object at 0x7f5838f392a0>]","[<rdkit.Chem.rdchem.Mol object at 0x7f5838f3ba70>, <rdkit.Chem.rdchem.Mol object at 0x7f5838f3a030>, <rdkit.Chem.rdchem.Mol object at 0x7f5838f3b6f0>, <rdkit.Chem.rdchem.Mol object at 0x7f5838f38cf0>, <rdkit.Chem.rdchem.Mol object at 0x7f5838f3b290>, <rdkit.Chem.rdchem.Mol object at 0x7f5838f3b060>, <rdkit.Chem.rdchem.Mol object at 0x7f5838f3b1b0>, '.', <rdkit.Chem.rdchem.Mol object at 0x7f5838f393f0>, <rdkit.Chem.rdchem.Mol object at 0x7f5838f3a810>, <rdkit.Chem.rdchem.Mol object at 0x7f5838f3a5e0>, <rdkit.Chem.rdchem.Mol object at 0x7f5838f3b610>, <rdkit.Chem.rdchem.Mol object at 0x7f5838f392a0>]","[0, 0, 0, 0, 1082, 1083, 1084, 1085, 1086, 1087, 1088, 1, 1089, 1090, 1091, 1092, 1093]"
PBTA-TF,IT-M,-5.36,-3.4200000000000004,-5.513571428571429,-3.808,1.0,o-xylene,24.0,PN,25.0,13.1,13.09,0.97,72.0,"[<rdkit.Chem.rdchem.Mol object at 0x7f5838f39850>, <rdkit.Chem.rdchem.Mol object at 0x7f5838f3b5a0>, <rdkit.Chem.rdchem.Mol object at 0x7f5838f3b4c0>, <rdkit.Chem.rdchem.Mol object at 0x7f5838f39fc0>, <rdkit.Chem.rdchem.Mol object at 0x7f5838f3ace0>, <rdkit.Chem.rdchem.Mol object at 0x7f5838f39b60>, <rdkit.Chem.rdchem.Mol object at 0x7f5838f44350>]","[<rdkit.Chem.rdchem.Mol object at 0x7f5838f3b530>, <rdkit.Chem.rdchem.Mol object at 0x7f5838f3af10>, <rdkit.Chem.rdchem.Mol object at 0x7f5838f3a7a0>, <rdkit.Chem.rdchem.Mol object at 0x7f5838f3bed0>, <rdkit.Chem.rdchem.Mol object at 0x7f5838f395b0>]","[<rdkit.Chem.rdchem.Mol object at 0x7f5838f39850>, <rdkit.Chem.rdchem.Mol object at 0x7f5838f3b5a0>, <rdkit.Chem.rdchem.Mol object at 0x7f5838f3b4c0>, <rdkit.Chem.rdchem.Mol object at 0x7f5838f39fc0>, <rdkit.Chem.rdchem.Mol object at 0x7f5838f3ace0>, <rdkit.Chem.rdchem.Mol object at 0x7f5838f39b60>, <rdkit.Chem.rdchem.Mol object at 0x7f5838f44350>, '.', <rdkit.Chem.rdchem.Mol object at 0x7f5838f3b530>, <rdkit.Chem.rdchem.Mol object at 0x7f5838f3af10>, <rdkit.Chem.rdchem.Mol object at 0x7f5838f3a7a0>, <rdkit.Chem.rdchem.Mol object at 0x7f5838f3bed0>, <rdkit.Chem.rdchem.Mol object at 0x7f5838f395b0>]","[0, 0, 0, 0, 1094, 1095, 1096, 1097, 1098, 1099, 1100, 1, 1101, 1102, 1103, 1104, 1105]"
PBDB-T,ITIC,-5.297714285714285,-3.4170000000000003,-5.574146341463415,-3.915,1.0,CB,20.0,DIO,160.0,11.21,11.21,0.899,74.2,"[<rdkit.Chem.rdchem.Mol object at 0x7f5838f3b220>, <rdkit.Chem.rdchem.Mol object at 0x7f5838f3a3b0>, <rdkit.Chem.rdchem.Mol object at 0x7f5838f3ae30>, <rdkit.Chem.rdchem.Mol object at 0x7f5838f440b0>, <rdkit.Chem.rdchem.Mol object at 0x7f5838f44d60>]","[<rdkit.Chem.rdchem.Mol object at 0x7f5838f3b8b0>, <rdkit.Chem.rdchem.Mol object at 0x7f5838f3b140>, <rdkit.Chem.rdchem.Mol object at 0x7f5838f3a9d0>, <rdkit.Chem.rdchem.Mol object at 0x7f5838f3bf40>, <rdkit.Chem.rdchem.Mol object at 0x7f5838f44190>]","[<rdkit.Chem.rdchem.Mol object at 0x7f5838f3b220>, <rdkit.Chem.rdchem.Mol object at 0x7f5838f3a3b0>, <rdkit.Chem.rdchem.Mol object at 0x7f5838f3ae30>, <rdkit.Chem.rdchem.Mol object at 0x7f5838f440b0>, <rdkit.Chem.rdchem.Mol object at 0x7f5838f44d60>, '.', <rdkit.Chem.rdchem.Mol object at 0x7f5838f3b8b0>, <rdkit.Chem.rdchem.Mol object at 0x7f5838f3b140>, <rdkit.Chem.rdchem.Mol object at 0x7f5838f3a9d0>, <rdkit.Chem.rdchem.Mol object at 0x7f5838f3bf40>, <rdkit.Chem.rdchem.Mol object at 0x7f5838f44190>]","[0, 0, 0, 0, 0, 0, 1106, 1107, 1108, 1109, 1110, 1, 1111, 1112, 1113, 1114, 1115]"
PBDB-T-SF,IT-4F,-5.41,-3.62,-5.66875,-4.060416666666667,1.0,CB,25.0,DIO,25.0,13.1,13.1,0.88,71.3,"[<rdkit.Chem.rdchem.Mol object at 0x7f5838f3bb50>, <rdkit.Chem.rdchem.Mol object at 0x7f5838f44eb0>, <rdkit.Chem.rdchem.Mol object at 0x7f5838f447b0>, <rdkit.Chem.rdchem.Mol object at 0x7f5838f44970>, <rdkit.Chem.rdchem.Mol object at 0x7f5838f44580>, <rdkit.Chem.rdchem.Mol object at 0x7f5838f449e0>]","[<rdkit.Chem.rdchem.Mol object at 0x7f5838f3be60>, <rdkit.Chem.rdchem.Mol object at 0x7f5838f44e40>, <rdkit.Chem.rdchem.Mol object at 0x7f5838f39e00>, <rdkit.Chem.rdchem.Mol object at 0x7f5838f3bca0>, <rdkit.Chem.rdchem.Mol object at 0x7f5838f44040>]","[<rdkit.Chem.rdchem.Mol object at 0x7f5838f3bb50>, <rdkit.Chem.rdchem.Mol object at 0x7f5838f44eb0>, <rdkit.Chem.rdchem.Mol object at 0x7f5838f447b0>, <rdkit.Chem.rdchem.Mol object at 0x7f5838f44970>, <rdkit.Chem.rdchem.Mol object at 0x7f5838f44580>, <rdkit.Chem.rdchem.Mol object at 0x7f5838f449e0>, '.', <rdkit.Chem.rdchem.Mol object at 0x7f5838f3be60>, <rdkit.Chem.rdchem.Mol object at 0x7f5838f44e40>, <rdkit.Chem.rdchem.Mol object at 0x7f5838f39e00>, <rdkit.Chem.rdchem.Mol object at 0x7f5838f3bca0>, <rdkit.Chem.rdchem.Mol object at 0x7f5838f44040>]","[0, 0, 0, 0, 0, 1116, 1117, 1118, 1119, 1120, 1121, 1, 1122, 1123, 1124, 1125, 1126]"
PBDB-T,ITIC,-5.297714285714285,-3.4170000000000003,-5.574146341463415,-3.915,1.0,CB,20.0,DIO,25.0,11.05,11.05,0.9,72.1,"[<rdkit.Chem.rdchem.Mol object at 0x7f5838f3a570>, <rdkit.Chem.rdchem.Mol object at 0x7f5838f450e0>, <rdkit.Chem.rdchem.Mol object at 0x7f5838f44270>, <rdkit.Chem.rdchem.Mol object at 0x7f5838f44900>, <rdkit.Chem.rdchem.Mol object at 0x7f5838f45460>]","[<rdkit.Chem.rdchem.Mol object at 0x7f5838f39690>, <rdkit.Chem.rdchem.Mol object at 0x7f5838f45620>, <rdkit.Chem.rdchem.Mol object at 0x7f5838f3a960>, <rdkit.Chem.rdchem.Mol object at 0x7f5838f454d0>, <rdkit.Chem.rdchem.Mol object at 0x7f5838f453f0>]","[<rdkit.Chem.rdchem.Mol object at 0x7f5838f3a570>, <rdkit.Chem.rdchem.Mol object at 0x7f5838f450e0>, <rdkit.Chem.rdchem.Mol object at 0x7f5838f44270>, <rdkit.Chem.rdchem.Mol object at 0x7f5838f44900>, <rdkit.Chem.rdchem.Mol object at 0x7f5838f45460>, '.', <rdkit.Chem.rdchem.Mol object at 0x7f5838f39690>, <rdkit.Chem.rdchem.Mol object at 0x7f5838f45620>, <rdkit.Chem.rdchem.Mol object at 0x7f5838f3a960>, <rdkit.Chem.rdchem.Mol object at 0x7f5838f454d0>, <rdkit.Chem.rdchem.Mol object at 0x7f5838f453f0>]","[0, 0, 0, 0, 0, 0, 1127, 1128, 1129, 1130, 1131, 1, 1132, 1133, 1134, 1135, 1136]"
PTB7,SFBRCN,-5.175,-3.435,-5.93,-3.86,0.833,CB,22.0,DIO,25.0,7.34,7.15,0.85,60.7,"[<rdkit.Chem.rdchem.Mol object at 0x7f5838f45e70>, <rdkit.Chem.rdchem.Mol object at 0x7f5838f461f0>, <rdkit.Chem.rdchem.Mol object at 0x7f5838f44510>, <rdkit.Chem.rdchem.Mol object at 0x7f5838f44740>, <rdkit.Chem.rdchem.Mol object at 0x7f5838f46490>]","[<rdkit.Chem.rdchem.Mol object at 0x7f5838f463b0>, <rdkit.Chem.rdchem.Mol object at 0x7f5838f46260>, <rdkit.Chem.rdchem.Mol object at 0x7f5838f46180>, <rdkit.Chem.rdchem.Mol object at 0x7f5838f462d0>, <rdkit.Chem.rdchem.Mol object at 0x7f5838f442e0>]","[<rdkit.Chem.rdchem.Mol object at 0x7f5838f45e70>, <rdkit.Chem.rdchem.Mol object at 0x7f5838f461f0>, <rdkit.Chem.rdchem.Mol object at 0x7f5838f44510>, <rdkit.Chem.rdchem.Mol object at 0x7f5838f44740>, <rdkit.Chem.rdchem.Mol object at 0x7f5838f46490>, '.', <rdkit.Chem.rdchem.Mol object at 0x7f5838f463b0>, <rdkit.Chem.rdchem.Mol object at 0x7f5838f46260>, <rdkit.Chem.rdchem.Mol object at 0x7f5838f46180>, <rdkit.Chem.rdchem.Mol object at 0x7f5838f462d0>, <rdkit.Chem.rdchem.Mol object at 0x7f5838f442e0>]","[0, 0, 0, 0, 0, 0, 1185, 1186, 1187, 1188, 1189, 1, 1190, 1191, 1192, 1193, 1194]"