Donor,Acceptor,HOMO_D_eV,LUMO_D_eV,HOMO_A_eV,LUMO_A_eV,D_A_ratio_m_m,solvent,total_solids_conc_mg_mL,solvent_additive,annealing_temperature,PCE_percent,calc_PCE_percent,Voc_V,FF_percent,Donor_BRICS,Acceptor_BRICS,DA_pair_BRICS,DA_tokenized_BRICS
PBDB-T,DTNIF,-5.297714285714285,-3.4170000000000003,-5.82,-3.92,1.0,CB,18.0,_,25.0,8.73,8.68,0.9,72.77,"[<rdkit.Chem.rdchem.Mol object at 0x7f5838e4ed50>, <rdkit.Chem.rdchem.Mol object at 0x7f5838c5f0d0>, <rdkit.Chem.rdchem.Mol object at 0x7f5838c5edc0>, <rdkit.Chem.rdchem.Mol object at 0x7f5838c5e1f0>, <rdkit.Chem.rdchem.Mol object at 0x7f5838c5ef80>]","[<rdkit.Chem.rdchem.Mol object at 0x7f5838c5f530>, <rdkit.Chem.rdchem.Mol object at 0x7f5838c5e030>, <rdkit.Chem.rdchem.Mol object at 0x7f5838c5ed50>, <rdkit.Chem.rdchem.Mol object at 0x7f5838c5c120>]","[<rdkit.Chem.rdchem.Mol object at 0x7f5838e4ed50>, <rdkit.Chem.rdchem.Mol object at 0x7f5838c5f0d0>, <rdkit.Chem.rdchem.Mol object at 0x7f5838c5edc0>, <rdkit.Chem.rdchem.Mol object at 0x7f5838c5e1f0>, <rdkit.Chem.rdchem.Mol object at 0x7f5838c5ef80>, '.', <rdkit.Chem.rdchem.Mol object at 0x7f5838c5f530>, <rdkit.Chem.rdchem.Mol object at 0x7f5838c5e030>, <rdkit.Chem.rdchem.Mol object at 0x7f5838c5ed50>, <rdkit.Chem.rdchem.Mol object at 0x7f5838c5c120>]","[0, 0, 0, 0, 0, 0, 0, 4236, 4237, 4238, 4239, 4240, 1, 4241, 4242, 4243, 4244]"
PBDB-T,DTNSF,-5.297714285714285,-3.4170000000000003,-5.52,-4.0,1.0,CB,18.0,_,25.0,7.15,7.28,0.92,54.62,"[<rdkit.Chem.rdchem.Mol object at 0x7f5838c5cac0>, <rdkit.Chem.rdchem.Mol object at 0x7f5838c5e0a0>, <rdkit.Chem.rdchem.Mol object at 0x7f5838c5e180>, <rdkit.Chem.rdchem.Mol object at 0x7f5838c5eb90>, <rdkit.Chem.rdchem.Mol object at 0x7f5838c5de70>]","[<rdkit.Chem.rdchem.Mol object at 0x7f5838c5f760>, <rdkit.Chem.rdchem.Mol object at 0x7f5838c5f220>, <rdkit.Chem.rdchem.Mol object at 0x7f5838c5ee30>, <rdkit.Chem.rdchem.Mol object at 0x7f5838c5e2d0>, <rdkit.Chem.rdchem.Mol object at 0x7f5838c5d3f0>]","[<rdkit.Chem.rdchem.Mol object at 0x7f5838c5cac0>, <rdkit.Chem.rdchem.Mol object at 0x7f5838c5e0a0>, <rdkit.Chem.rdchem.Mol object at 0x7f5838c5e180>, <rdkit.Chem.rdchem.Mol object at 0x7f5838c5eb90>, <rdkit.Chem.rdchem.Mol object at 0x7f5838c5de70>, '.', <rdkit.Chem.rdchem.Mol object at 0x7f5838c5f760>, <rdkit.Chem.rdchem.Mol object at 0x7f5838c5f220>, <rdkit.Chem.rdchem.Mol object at 0x7f5838c5ee30>, <rdkit.Chem.rdchem.Mol object at 0x7f5838c5e2d0>, <rdkit.Chem.rdchem.Mol object at 0x7f5838c5d3f0>]","[0, 0, 0, 0, 0, 0, 4245, 4246, 4247, 4248, 4249, 1, 4250, 4251, 4252, 4253, 4254]"
PBTIBDTT,Si4TIC-F,-5.47,-3.6,-5.58,-4.21,0.667,CB,12.5,CN,25.0,10.2,10.2,0.78,69.4,"[<rdkit.Chem.rdchem.Mol object at 0x7f5838c5d700>, <rdkit.Chem.rdchem.Mol object at 0x7f5838c5e650>, <rdkit.Chem.rdchem.Mol object at 0x7f5838c5e420>, <rdkit.Chem.rdchem.Mol object at 0x7f5838c5f3e0>, <rdkit.Chem.rdchem.Mol object at 0x7f5838c5dcb0>, <rdkit.Chem.rdchem.Mol object at 0x7f5838c5f990>, <rdkit.Chem.rdchem.Mol object at 0x7f5838c5fae0>, <rdkit.Chem.rdchem.Mol object at 0x7f5838c68270>]","[<rdkit.Chem.rdchem.Mol object at 0x7f5838c5fa70>, <rdkit.Chem.rdchem.Mol object at 0x7f5838c5f8b0>, <rdkit.Chem.rdchem.Mol object at 0x7f5838c5e340>, <rdkit.Chem.rdchem.Mol object at 0x7f5838c5fd10>]","[<rdkit.Chem.rdchem.Mol object at 0x7f5838c5d700>, <rdkit.Chem.rdchem.Mol object at 0x7f5838c5e650>, <rdkit.Chem.rdchem.Mol object at 0x7f5838c5e420>, <rdkit.Chem.rdchem.Mol object at 0x7f5838c5f3e0>, <rdkit.Chem.rdchem.Mol object at 0x7f5838c5dcb0>, <rdkit.Chem.rdchem.Mol object at 0x7f5838c5f990>, <rdkit.Chem.rdchem.Mol object at 0x7f5838c5fae0>, <rdkit.Chem.rdchem.Mol object at 0x7f5838c68270>, '.', <rdkit.Chem.rdchem.Mol object at 0x7f5838c5fa70>, <rdkit.Chem.rdchem.Mol object at 0x7f5838c5f8b0>, <rdkit.Chem.rdchem.Mol object at 0x7f5838c5e340>, <rdkit.Chem.rdchem.Mol object at 0x7f5838c5fd10>]","[0, 0, 0, 0, 4255, 4256, 4257, 4258, 4259, 4260, 4261, 4262, 1, 4263, 4264, 4265, 4266]"
PDCBT-2F,IT-4F,-5.6,-3.67,-5.66875,-4.060416666666667,1.0,CF,16.0,DIO,25.0,11.6,11.3,0.92,69.0,"[<rdkit.Chem.rdchem.Mol object at 0x7f5838c5fc30>, <rdkit.Chem.rdchem.Mol object at 0x7f5838c5fa00>, <rdkit.Chem.rdchem.Mol object at 0x7f5838c5fdf0>, <rdkit.Chem.rdchem.Mol object at 0x7f5838c5f140>, <rdkit.Chem.rdchem.Mol object at 0x7f5838c5fb50>]","[<rdkit.Chem.rdchem.Mol object at 0x7f5838c5fed0>, <rdkit.Chem.rdchem.Mol object at 0x7f5838c5e960>, <rdkit.Chem.rdchem.Mol object at 0x7f5838c5fd80>, <rdkit.Chem.rdchem.Mol object at 0x7f5838c5f370>, <rdkit.Chem.rdchem.Mol object at 0x7f5838c5e880>]","[<rdkit.Chem.rdchem.Mol object at 0x7f5838c5fc30>, <rdkit.Chem.rdchem.Mol object at 0x7f5838c5fa00>, <rdkit.Chem.rdchem.Mol object at 0x7f5838c5fdf0>, <rdkit.Chem.rdchem.Mol object at 0x7f5838c5f140>, <rdkit.Chem.rdchem.Mol object at 0x7f5838c5fb50>, '.', <rdkit.Chem.rdchem.Mol object at 0x7f5838c5fed0>, <rdkit.Chem.rdchem.Mol object at 0x7f5838c5e960>, <rdkit.Chem.rdchem.Mol object at 0x7f5838c5fd80>, <rdkit.Chem.rdchem.Mol object at 0x7f5838c5f370>, <rdkit.Chem.rdchem.Mol object at 0x7f5838c5e880>]","[0, 0, 0, 0, 0, 0, 4267, 4268, 4269, 4270, 4271, 1, 4272, 4273, 4274, 4275, 4276]"
PTB7-Th,IDT-FBTR,-5.204782608695651,-3.5391891891891896,-5.47,-3.65,1.5,o-DCB,20.0,_,25.0,7.01,7.0,1.02,52.97,"[<rdkit.Chem.rdchem.Mol object at 0x7f5838c5e810>, <rdkit.Chem.rdchem.Mol object at 0x7f5838c5dd90>, <rdkit.Chem.rdchem.Mol object at 0x7f5838c5eea0>, <rdkit.Chem.rdchem.Mol object at 0x7f5838c5f610>, <rdkit.Chem.rdchem.Mol object at 0x7f5838c5f920>, <rdkit.Chem.rdchem.Mol object at 0x7f5838c5d150>, <rdkit.Chem.rdchem.Mol object at 0x7f5838c5c970>]","[<rdkit.Chem.rdchem.Mol object at 0x7f5838c5d7e0>, <rdkit.Chem.rdchem.Mol object at 0x7f5838c5e500>, <rdkit.Chem.rdchem.Mol object at 0x7f5838c5e260>, <rdkit.Chem.rdchem.Mol object at 0x7f5838c5ea40>, <rdkit.Chem.rdchem.Mol object at 0x7f5838c5e9d0>]","[<rdkit.Chem.rdchem.Mol object at 0x7f5838c5e810>, <rdkit.Chem.rdchem.Mol object at 0x7f5838c5dd90>, <rdkit.Chem.rdchem.Mol object at 0x7f5838c5eea0>, <rdkit.Chem.rdchem.Mol object at 0x7f5838c5f610>, <rdkit.Chem.rdchem.Mol object at 0x7f5838c5f920>, <rdkit.Chem.rdchem.Mol object at 0x7f5838c5d150>, <rdkit.Chem.rdchem.Mol object at 0x7f5838c5c970>, '.', <rdkit.Chem.rdchem.Mol object at 0x7f5838c5d7e0>, <rdkit.Chem.rdchem.Mol object at 0x7f5838c5e500>, <rdkit.Chem.rdchem.Mol object at 0x7f5838c5e260>, <rdkit.Chem.rdchem.Mol object at 0x7f5838c5ea40>, <rdkit.Chem.rdchem.Mol object at 0x7f5838c5e9d0>]","[0, 0, 0, 0, 4277, 4278, 4279, 4280, 4281, 4282, 4283, 1, 4284, 4285, 4286, 4287, 4288]"
PBT1-C-MW,ITCPTC,-5.46,-3.4,-5.604000000000001,-3.858000000000001,1.0,CF,16.0,_,100.0,12.8,12.77,0.94,79.0,"[<rdkit.Chem.rdchem.Mol object at 0x7f5838c5e6c0>, <rdkit.Chem.rdchem.Mol object at 0x7f5838c5ef10>, <rdkit.Chem.rdchem.Mol object at 0x7f5838c68120>, <rdkit.Chem.rdchem.Mol object at 0x7f5838c5f6f0>, <rdkit.Chem.rdchem.Mol object at 0x7f5838c6a0a0>, <rdkit.Chem.rdchem.Mol object at 0x7f5838c6a260>, <rdkit.Chem.rdchem.Mol object at 0x7f5838c69c40>, <rdkit.Chem.rdchem.Mol object at 0x7f5838c69f50>]","[<rdkit.Chem.rdchem.Mol object at 0x7f5838c5ff40>, <rdkit.Chem.rdchem.Mol object at 0x7f5838c699a0>, <rdkit.Chem.rdchem.Mol object at 0x7f5838c5de00>, <rdkit.Chem.rdchem.Mol object at 0x7f5838c6a730>, <rdkit.Chem.rdchem.Mol object at 0x7f5838c69e00>]","[<rdkit.Chem.rdchem.Mol object at 0x7f5838c5e6c0>, <rdkit.Chem.rdchem.Mol object at 0x7f5838c5ef10>, <rdkit.Chem.rdchem.Mol object at 0x7f5838c68120>, <rdkit.Chem.rdchem.Mol object at 0x7f5838c5f6f0>, <rdkit.Chem.rdchem.Mol object at 0x7f5838c6a0a0>, <rdkit.Chem.rdchem.Mol object at 0x7f5838c6a260>, <rdkit.Chem.rdchem.Mol object at 0x7f5838c69c40>, <rdkit.Chem.rdchem.Mol object at 0x7f5838c69f50>, '.', <rdkit.Chem.rdchem.Mol object at 0x7f5838c5ff40>, <rdkit.Chem.rdchem.Mol object at 0x7f5838c699a0>, <rdkit.Chem.rdchem.Mol object at 0x7f5838c5de00>, <rdkit.Chem.rdchem.Mol object at 0x7f5838c6a730>, <rdkit.Chem.rdchem.Mol object at 0x7f5838c69e00>]","[0, 0, 0, 4316, 4317, 4318, 4319, 4320, 4321, 4322, 4323, 1, 4324, 4325, 4326, 4327, 4328]"
PBDTTz-N,ITIC,-5.23,-3.52,-5.574146341463415,-3.915,1.0,CB,14.0,_,25.0,6.61,6.62,0.75,49.0,"[<rdkit.Chem.rdchem.Mol object at 0x7f5838c6ad50>, <rdkit.Chem.rdchem.Mol object at 0x7f5838c6af10>, <rdkit.Chem.rdchem.Mol object at 0x7f5838c69000>, <rdkit.Chem.rdchem.Mol object at 0x7f5838c791c0>, <rdkit.Chem.rdchem.Mol object at 0x7f5838c789e0>, <rdkit.Chem.rdchem.Mol object at 0x7f5838c795b0>, <rdkit.Chem.rdchem.Mol object at 0x7f5838c79150>, <rdkit.Chem.rdchem.Mol object at 0x7f5838c784a0>]","[<rdkit.Chem.rdchem.Mol object at 0x7f5838c6adc0>, <rdkit.Chem.rdchem.Mol object at 0x7f5838c78f20>, <rdkit.Chem.rdchem.Mol object at 0x7f5838c6b990>, <rdkit.Chem.rdchem.Mol object at 0x7f5838c79310>, <rdkit.Chem.rdchem.Mol object at 0x7f5838c793f0>]","[<rdkit.Chem.rdchem.Mol object at 0x7f5838c6ad50>, <rdkit.Chem.rdchem.Mol object at 0x7f5838c6af10>, <rdkit.Chem.rdchem.Mol object at 0x7f5838c69000>, <rdkit.Chem.rdchem.Mol object at 0x7f5838c791c0>, <rdkit.Chem.rdchem.Mol object at 0x7f5838c789e0>, <rdkit.Chem.rdchem.Mol object at 0x7f5838c795b0>, <rdkit.Chem.rdchem.Mol object at 0x7f5838c79150>, <rdkit.Chem.rdchem.Mol object at 0x7f5838c784a0>, '.', <rdkit.Chem.rdchem.Mol object at 0x7f5838c6adc0>, <rdkit.Chem.rdchem.Mol object at 0x7f5838c78f20>, <rdkit.Chem.rdchem.Mol object at 0x7f5838c6b990>, <rdkit.Chem.rdchem.Mol object at 0x7f5838c79310>, <rdkit.Chem.rdchem.Mol object at 0x7f5838c793f0>]","[0, 0, 0, 4454, 4455, 4456, 4457, 4458, 4459, 4460, 4461, 1, 4462, 4463, 4464, 4465, 4466]"
PBDB-T,F-H,-5.297714285714285,-3.4170000000000003,-5.42,-3.79,0.833,CB,22.0,_,25.0,9.59,9.46,0.94,67.0,"[<rdkit.Chem.rdchem.Mol object at 0x7f5838c6b7d0>, <rdkit.Chem.rdchem.Mol object at 0x7f5838c79380>, <rdkit.Chem.rdchem.Mol object at 0x7f5838c78660>, <rdkit.Chem.rdchem.Mol object at 0x7f5838c790e0>, <rdkit.Chem.rdchem.Mol object at 0x7f5838c79af0>]","[<rdkit.Chem.rdchem.Mol object at 0x7f5838c69b60>, <rdkit.Chem.rdchem.Mol object at 0x7f5838c79700>, <rdkit.Chem.rdchem.Mol object at 0x7f5838c69540>, <rdkit.Chem.rdchem.Mol object at 0x7f5838c78eb0>]","[<rdkit.Chem.rdchem.Mol object at 0x7f5838c6b7d0>, <rdkit.Chem.rdchem.Mol object at 0x7f5838c79380>, <rdkit.Chem.rdchem.Mol object at 0x7f5838c78660>, <rdkit.Chem.rdchem.Mol object at 0x7f5838c790e0>, <rdkit.Chem.rdchem.Mol object at 0x7f5838c79af0>, '.', <rdkit.Chem.rdchem.Mol object at 0x7f5838c69b60>, <rdkit.Chem.rdchem.Mol object at 0x7f5838c79700>, <rdkit.Chem.rdchem.Mol object at 0x7f5838c69540>, <rdkit.Chem.rdchem.Mol object at 0x7f5838c78eb0>]","[0, 0, 0, 0, 0, 0, 0, 4467, 4468, 4469, 4470, 4471, 1, 4472, 4473, 4474, 4475]"
PBDB-T,DF-PCIC,-5.297714285714285,-3.4170000000000003,-5.49,-3.77,0.833,CF,20.0,CN,100.0,11.63,11.34,0.86,72.62,"[<rdkit.Chem.rdchem.Mol object at 0x7f5838c6bed0>, <rdkit.Chem.rdchem.Mol object at 0x7f5838c79070>, <rdkit.Chem.rdchem.Mol object at 0x7f5838c78430>, <rdkit.Chem.rdchem.Mol object at 0x7f5838c79b60>, <rdkit.Chem.rdchem.Mol object at 0x7f5838c797e0>]","[<rdkit.Chem.rdchem.Mol object at 0x7f5838c7aea0>, <rdkit.Chem.rdchem.Mol object at 0x7f5838c79770>, <rdkit.Chem.rdchem.Mol object at 0x7f5838c78900>, <rdkit.Chem.rdchem.Mol object at 0x7f5838c7a3b0>, <rdkit.Chem.rdchem.Mol object at 0x7f5838c79cb0>]","[<rdkit.Chem.rdchem.Mol object at 0x7f5838c6bed0>, <rdkit.Chem.rdchem.Mol object at 0x7f5838c79070>, <rdkit.Chem.rdchem.Mol object at 0x7f5838c78430>, <rdkit.Chem.rdchem.Mol object at 0x7f5838c79b60>, <rdkit.Chem.rdchem.Mol object at 0x7f5838c797e0>, '.', <rdkit.Chem.rdchem.Mol object at 0x7f5838c7aea0>, <rdkit.Chem.rdchem.Mol object at 0x7f5838c79770>, <rdkit.Chem.rdchem.Mol object at 0x7f5838c78900>, <rdkit.Chem.rdchem.Mol object at 0x7f5838c7a3b0>, <rdkit.Chem.rdchem.Mol object at 0x7f5838c79cb0>]","[0, 0, 0, 0, 0, 0, 4503, 4504, 4505, 4506, 4507, 1, 4508, 4509, 4510, 4511, 4512]"
PBDB-T,DF-PCNC,-5.297714285714285,-3.4170000000000003,-5.42,-3.81,0.833,CF,20.0,CN,130.0,10.14,10.27,0.91,72.07,"[<rdkit.Chem.rdchem.Mol object at 0x7f5838c7adc0>, <rdkit.Chem.rdchem.Mol object at 0x7f5838c79460>, <rdkit.Chem.rdchem.Mol object at 0x7f5838c79f50>, <rdkit.Chem.rdchem.Mol object at 0x7f5838c798c0>, <rdkit.Chem.rdchem.Mol object at 0x7f5838c7b1b0>]","[<rdkit.Chem.rdchem.Mol object at 0x7f5838c7b3e0>, <rdkit.Chem.rdchem.Mol object at 0x7f5838c7a810>, <rdkit.Chem.rdchem.Mol object at 0x7f5838c78510>, <rdkit.Chem.rdchem.Mol object at 0x7f5838c7a960>, <rdkit.Chem.rdchem.Mol object at 0x7f5838c7a030>]","[<rdkit.Chem.rdchem.Mol object at 0x7f5838c7adc0>, <rdkit.Chem.rdchem.Mol object at 0x7f5838c79460>, <rdkit.Chem.rdchem.Mol object at 0x7f5838c79f50>, <rdkit.Chem.rdchem.Mol object at 0x7f5838c798c0>, <rdkit.Chem.rdchem.Mol object at 0x7f5838c7b1b0>, '.', <rdkit.Chem.rdchem.Mol object at 0x7f5838c7b3e0>, <rdkit.Chem.rdchem.Mol object at 0x7f5838c7a810>, <rdkit.Chem.rdchem.Mol object at 0x7f5838c78510>, <rdkit.Chem.rdchem.Mol object at 0x7f5838c7a960>, <rdkit.Chem.rdchem.Mol object at 0x7f5838c7a030>]","[0, 0, 0, 0, 0, 0, 4513, 4514, 4515, 4516, 4517, 1, 4518, 4519, 4520, 4521, 4522]"
PTB7-Th,ITCT,-5.204782608695651,-3.5391891891891896,-5.596666666666667,-3.796666666666667,0.833,CF,15.0,DIO,80.0,10.42,10.35,0.95,72.0,"[<rdkit.Chem.rdchem.Mol object at 0x7f5838c7a880>, <rdkit.Chem.rdchem.Mol object at 0x7f5838c7af10>, <rdkit.Chem.rdchem.Mol object at 0x7f5838c79ee0>, <rdkit.Chem.rdchem.Mol object at 0x7f5838c7b060>, <rdkit.Chem.rdchem.Mol object at 0x7f5838c7a8f0>, <rdkit.Chem.rdchem.Mol object at 0x7f5838c7aa40>, <rdkit.Chem.rdchem.Mol object at 0x7f5838c782e0>]","[<rdkit.Chem.rdchem.Mol object at 0x7f5838c7a0a0>, <rdkit.Chem.rdchem.Mol object at 0x7f5838c7b300>, <rdkit.Chem.rdchem.Mol object at 0x7f5838c79850>, <rdkit.Chem.rdchem.Mol object at 0x7f5838c7a7a0>, <rdkit.Chem.rdchem.Mol object at 0x7f5838c7a5e0>]","[<rdkit.Chem.rdchem.Mol object at 0x7f5838c7a880>, <rdkit.Chem.rdchem.Mol object at 0x7f5838c7af10>, <rdkit.Chem.rdchem.Mol object at 0x7f5838c79ee0>, <rdkit.Chem.rdchem.Mol object at 0x7f5838c7b060>, <rdkit.Chem.rdchem.Mol object at 0x7f5838c7a8f0>, <rdkit.Chem.rdchem.Mol object at 0x7f5838c7aa40>, <rdkit.Chem.rdchem.Mol object at 0x7f5838c782e0>, '.', <rdkit.Chem.rdchem.Mol object at 0x7f5838c7a0a0>, <rdkit.Chem.rdchem.Mol object at 0x7f5838c7b300>, <rdkit.Chem.rdchem.Mol object at 0x7f5838c79850>, <rdkit.Chem.rdchem.Mol object at 0x7f5838c7a7a0>, <rdkit.Chem.rdchem.Mol object at 0x7f5838c7a5e0>]","[0, 0, 0, 0, 4523, 4524, 4525, 4526, 4527, 4528, 4529, 1, 4530, 4531, 4532, 4533, 4534]"
PTB7-Th,ITIC,-5.204782608695651,-3.5391891891891896,-5.574146341463415,-3.915,0.769,CF,25.0,DIO,25.0,6.8,6.79,0.81,59.0,"[<rdkit.Chem.rdchem.Mol object at 0x7f5838c7ac00>, <rdkit.Chem.rdchem.Mol object at 0x7f5838c7ace0>, <rdkit.Chem.rdchem.Mol object at 0x7f5838c7ae30>, <rdkit.Chem.rdchem.Mol object at 0x7f5838c79a10>, <rdkit.Chem.rdchem.Mol object at 0x7f5838c7a650>, <rdkit.Chem.rdchem.Mol object at 0x7f5838c79d20>, <rdkit.Chem.rdchem.Mol object at 0x7f5838c7af80>]","[<rdkit.Chem.rdchem.Mol object at 0x7f5838c780b0>, <rdkit.Chem.rdchem.Mol object at 0x7f5838c7b530>, <rdkit.Chem.rdchem.Mol object at 0x7f5838c79e00>, <rdkit.Chem.rdchem.Mol object at 0x7f5838c7ac70>, <rdkit.Chem.rdchem.Mol object at 0x7f5838c79a80>]","[<rdkit.Chem.rdchem.Mol object at 0x7f5838c7ac00>, <rdkit.Chem.rdchem.Mol object at 0x7f5838c7ace0>, <rdkit.Chem.rdchem.Mol object at 0x7f5838c7ae30>, <rdkit.Chem.rdchem.Mol object at 0x7f5838c79a10>, <rdkit.Chem.rdchem.Mol object at 0x7f5838c7a650>, <rdkit.Chem.rdchem.Mol object at 0x7f5838c79d20>, <rdkit.Chem.rdchem.Mol object at 0x7f5838c7af80>, '.', <rdkit.Chem.rdchem.Mol object at 0x7f5838c780b0>, <rdkit.Chem.rdchem.Mol object at 0x7f5838c7b530>, <rdkit.Chem.rdchem.Mol object at 0x7f5838c79e00>, <rdkit.Chem.rdchem.Mol object at 0x7f5838c7ac70>, <rdkit.Chem.rdchem.Mol object at 0x7f5838c79a80>]","[0, 0, 0, 0, 4535, 4536, 4537, 4538, 4539, 4540, 4541, 1, 4542, 4543, 4544, 4545, 4546]"
PTB7-Th,IDIC,-5.204782608695651,-3.5391891891891896,-5.706,-4.002666666666667,1.0,CF,12.0,_,25.0,5.24,4.94,0.81,56.0,"[<rdkit.Chem.rdchem.Mol object at 0x7f5838c7b760>, <rdkit.Chem.rdchem.Mol object at 0x7f5838c7b140>, <rdkit.Chem.rdchem.Mol object at 0x7f5838c7a730>, <rdkit.Chem.rdchem.Mol object at 0x7f5838c7b0d0>, <rdkit.Chem.rdchem.Mol object at 0x7f5838c7aab0>, <rdkit.Chem.rdchem.Mol object at 0x7f5838c7b610>, <rdkit.Chem.rdchem.Mol object at 0x7f5838c7b450>]","[<rdkit.Chem.rdchem.Mol object at 0x7f5838c7b220>, <rdkit.Chem.rdchem.Mol object at 0x7f5838c7b680>, <rdkit.Chem.rdchem.Mol object at 0x7f5838c7a340>, <rdkit.Chem.rdchem.Mol object at 0x7f5838c786d0>]","[<rdkit.Chem.rdchem.Mol object at 0x7f5838c7b760>, <rdkit.Chem.rdchem.Mol object at 0x7f5838c7b140>, <rdkit.Chem.rdchem.Mol object at 0x7f5838c7a730>, <rdkit.Chem.rdchem.Mol object at 0x7f5838c7b0d0>, <rdkit.Chem.rdchem.Mol object at 0x7f5838c7aab0>, <rdkit.Chem.rdchem.Mol object at 0x7f5838c7b610>, <rdkit.Chem.rdchem.Mol object at 0x7f5838c7b450>, '.', <rdkit.Chem.rdchem.Mol object at 0x7f5838c7b220>, <rdkit.Chem.rdchem.Mol object at 0x7f5838c7b680>, <rdkit.Chem.rdchem.Mol object at 0x7f5838c7a340>, <rdkit.Chem.rdchem.Mol object at 0x7f5838c786d0>]","[0, 0, 0, 0, 0, 4547, 4548, 4549, 4550, 4551, 4552, 4553, 1, 4554, 4555, 4556, 4557]"
PTB7-Th,IEICO-4F,-5.204782608695651,-3.5391891891891896,-5.309971428571429,-3.851028571428572,0.667,CB,25.0,_,100.0,10.0,9.95,0.74,59.0,"[<rdkit.Chem.rdchem.Mol object at 0x7f5838c7a2d0>, <rdkit.Chem.rdchem.Mol object at 0x7f5838c79e70>, <rdkit.Chem.rdchem.Mol object at 0x7f5838c78cf0>, <rdkit.Chem.rdchem.Mol object at 0x7f5838c787b0>, <rdkit.Chem.rdchem.Mol object at 0x7f5838c79930>, <rdkit.Chem.rdchem.Mol object at 0x7f5838c7a420>, <rdkit.Chem.rdchem.Mol object at 0x7f5838c7bb50>]","[<rdkit.Chem.rdchem.Mol object at 0x7f5838c7bc30>, <rdkit.Chem.rdchem.Mol object at 0x7f5838c7a490>, <rdkit.Chem.rdchem.Mol object at 0x7f5838c78b30>, <rdkit.Chem.rdchem.Mol object at 0x7f5838c7b920>, <rdkit.Chem.rdchem.Mol object at 0x7f5838c7bd10>, <rdkit.Chem.rdchem.Mol object at 0x7f5838c7bca0>, <rdkit.Chem.rdchem.Mol object at 0x7f5838c80510>, <rdkit.Chem.rdchem.Mol object at 0x7f5838c80350>]","[<rdkit.Chem.rdchem.Mol object at 0x7f5838c7a2d0>, <rdkit.Chem.rdchem.Mol object at 0x7f5838c79e70>, <rdkit.Chem.rdchem.Mol object at 0x7f5838c78cf0>, <rdkit.Chem.rdchem.Mol object at 0x7f5838c787b0>, <rdkit.Chem.rdchem.Mol object at 0x7f5838c79930>, <rdkit.Chem.rdchem.Mol object at 0x7f5838c7a420>, <rdkit.Chem.rdchem.Mol object at 0x7f5838c7bb50>, '.', <rdkit.Chem.rdchem.Mol object at 0x7f5838c7bc30>, <rdkit.Chem.rdchem.Mol object at 0x7f5838c7a490>, <rdkit.Chem.rdchem.Mol object at 0x7f5838c78b30>, <rdkit.Chem.rdchem.Mol object at 0x7f5838c7b920>, <rdkit.Chem.rdchem.Mol object at 0x7f5838c7bd10>, <rdkit.Chem.rdchem.Mol object at 0x7f5838c7bca0>, <rdkit.Chem.rdchem.Mol object at 0x7f5838c80510>, <rdkit.Chem.rdchem.Mol object at 0x7f5838c80350>]","[0, 4558, 4559, 4560, 4561, 4562, 4563, 4564, 1, 4565, 4566, 4567, 4568, 4569, 4570, 4571, 4572]"