Donor,Acceptor,HOMO_D_eV,LUMO_D_eV,HOMO_A_eV,LUMO_A_eV,D_A_ratio_m_m,solvent,total_solids_conc_mg_mL,solvent_additive,annealing_temperature,PCE_percent,calc_PCE_percent,Voc_V,FF_percent,Donor_BRICS,Acceptor_BRICS,DA_pair_BRICS,DA_tokenized_BRICS
J62,ITIC,-5.31,-3.08,-5.574146341463415,-3.915,1.5,CF,18.0,_,25.0,9.09,9.09,0.904,62.36,"[<rdkit.Chem.rdchem.Mol object at 0x7f5838e9c890>, <rdkit.Chem.rdchem.Mol object at 0x7f5838e9c5f0>, <rdkit.Chem.rdchem.Mol object at 0x7f5838e9c120>, <rdkit.Chem.rdchem.Mol object at 0x7f5838e9dbd0>, <rdkit.Chem.rdchem.Mol object at 0x7f5838e9dd90>, <rdkit.Chem.rdchem.Mol object at 0x7f5838e9dd20>, <rdkit.Chem.rdchem.Mol object at 0x7f5838e9ea40>]","[<rdkit.Chem.rdchem.Mol object at 0x7f5838e9e810>, <rdkit.Chem.rdchem.Mol object at 0x7f5838e9dc40>, <rdkit.Chem.rdchem.Mol object at 0x7f5838e9e6c0>, <rdkit.Chem.rdchem.Mol object at 0x7f5838e9e180>, <rdkit.Chem.rdchem.Mol object at 0x7f5838e9e1f0>]","[<rdkit.Chem.rdchem.Mol object at 0x7f5838e9c890>, <rdkit.Chem.rdchem.Mol object at 0x7f5838e9c5f0>, <rdkit.Chem.rdchem.Mol object at 0x7f5838e9c120>, <rdkit.Chem.rdchem.Mol object at 0x7f5838e9dbd0>, <rdkit.Chem.rdchem.Mol object at 0x7f5838e9dd90>, <rdkit.Chem.rdchem.Mol object at 0x7f5838e9dd20>, <rdkit.Chem.rdchem.Mol object at 0x7f5838e9ea40>, '.', <rdkit.Chem.rdchem.Mol object at 0x7f5838e9e810>, <rdkit.Chem.rdchem.Mol object at 0x7f5838e9dc40>, <rdkit.Chem.rdchem.Mol object at 0x7f5838e9e6c0>, <rdkit.Chem.rdchem.Mol object at 0x7f5838e9e180>, <rdkit.Chem.rdchem.Mol object at 0x7f5838e9e1f0>]","[0, 0, 0, 0, 458, 459, 460, 461, 462, 463, 464, 1, 465, 466, 467, 468, 469]"
J63,ITIC,-5.28,-3.04,-5.574146341463415,-3.915,1.5,CF,18.0,_,25.0,7.38,7.36,0.882,53.11,"[<rdkit.Chem.rdchem.Mol object at 0x7f5838e9cd60>, <rdkit.Chem.rdchem.Mol object at 0x7f5838e9db60>, <rdkit.Chem.rdchem.Mol object at 0x7f5838e9dfc0>, <rdkit.Chem.rdchem.Mol object at 0x7f5838e9d3f0>, <rdkit.Chem.rdchem.Mol object at 0x7f5838e9e5e0>, <rdkit.Chem.rdchem.Mol object at 0x7f5838e9cac0>, <rdkit.Chem.rdchem.Mol object at 0x7f5838e9ef80>]","[<rdkit.Chem.rdchem.Mol object at 0x7f5838e9ed50>, <rdkit.Chem.rdchem.Mol object at 0x7f5838e9e260>, <rdkit.Chem.rdchem.Mol object at 0x7f5838e9ec00>, <rdkit.Chem.rdchem.Mol object at 0x7f5838e9e340>, <rdkit.Chem.rdchem.Mol object at 0x7f5838e9e730>]","[<rdkit.Chem.rdchem.Mol object at 0x7f5838e9cd60>, <rdkit.Chem.rdchem.Mol object at 0x7f5838e9db60>, <rdkit.Chem.rdchem.Mol object at 0x7f5838e9dfc0>, <rdkit.Chem.rdchem.Mol object at 0x7f5838e9d3f0>, <rdkit.Chem.rdchem.Mol object at 0x7f5838e9e5e0>, <rdkit.Chem.rdchem.Mol object at 0x7f5838e9cac0>, <rdkit.Chem.rdchem.Mol object at 0x7f5838e9ef80>, '.', <rdkit.Chem.rdchem.Mol object at 0x7f5838e9ed50>, <rdkit.Chem.rdchem.Mol object at 0x7f5838e9e260>, <rdkit.Chem.rdchem.Mol object at 0x7f5838e9ec00>, <rdkit.Chem.rdchem.Mol object at 0x7f5838e9e340>, <rdkit.Chem.rdchem.Mol object at 0x7f5838e9e730>]","[0, 0, 0, 0, 470, 471, 472, 473, 474, 475, 476, 1, 477, 478, 479, 480, 481]"
J81,m-ITIC,-5.43,-2.98,-5.526666666666667,-3.8515384615384622,1.0,CF,18.0,_,160.0,10.6,10.6,0.95,73.08,"[<rdkit.Chem.rdchem.Mol object at 0x7f5838e9d700>, <rdkit.Chem.rdchem.Mol object at 0x7f5838e9edc0>, <rdkit.Chem.rdchem.Mol object at 0x7f5838e9de70>, <rdkit.Chem.rdchem.Mol object at 0x7f5838e9ec70>, <rdkit.Chem.rdchem.Mol object at 0x7f5838e9eff0>, <rdkit.Chem.rdchem.Mol object at 0x7f5838e9f6f0>]","[<rdkit.Chem.rdchem.Mol object at 0x7f5838e9ece0>, <rdkit.Chem.rdchem.Mol object at 0x7f5838e9f290>, <rdkit.Chem.rdchem.Mol object at 0x7f5838e9f300>, <rdkit.Chem.rdchem.Mol object at 0x7f5838e9e650>, <rdkit.Chem.rdchem.Mol object at 0x7f5838e9e9d0>]","[<rdkit.Chem.rdchem.Mol object at 0x7f5838e9d700>, <rdkit.Chem.rdchem.Mol object at 0x7f5838e9edc0>, <rdkit.Chem.rdchem.Mol object at 0x7f5838e9de70>, <rdkit.Chem.rdchem.Mol object at 0x7f5838e9ec70>, <rdkit.Chem.rdchem.Mol object at 0x7f5838e9eff0>, <rdkit.Chem.rdchem.Mol object at 0x7f5838e9f6f0>, '.', <rdkit.Chem.rdchem.Mol object at 0x7f5838e9ece0>, <rdkit.Chem.rdchem.Mol object at 0x7f5838e9f290>, <rdkit.Chem.rdchem.Mol object at 0x7f5838e9f300>, <rdkit.Chem.rdchem.Mol object at 0x7f5838e9e650>, <rdkit.Chem.rdchem.Mol object at 0x7f5838e9e9d0>]","[0, 0, 0, 0, 0, 495, 496, 497, 498, 499, 500, 1, 501, 502, 503, 504, 505]"
J81,m-ITIC,-5.43,-2.98,-5.526666666666667,-3.8515384615384622,1.0,CF,18.0,_,160.0,11.05,11.04,0.96,69.83,"[<rdkit.Chem.rdchem.Mol object at 0x7f5838e9f840>, <rdkit.Chem.rdchem.Mol object at 0x7f5838e9e490>, <rdkit.Chem.rdchem.Mol object at 0x7f5838e9f220>, <rdkit.Chem.rdchem.Mol object at 0x7f5838e9e7a0>, <rdkit.Chem.rdchem.Mol object at 0x7f5838e9dee0>, <rdkit.Chem.rdchem.Mol object at 0x7f5838e9fb50>]","[<rdkit.Chem.rdchem.Mol object at 0x7f5838e9f680>, <rdkit.Chem.rdchem.Mol object at 0x7f5838e9c6d0>, <rdkit.Chem.rdchem.Mol object at 0x7f5838e9f610>, <rdkit.Chem.rdchem.Mol object at 0x7f5838e9c900>, <rdkit.Chem.rdchem.Mol object at 0x7f5838e9d850>]","[<rdkit.Chem.rdchem.Mol object at 0x7f5838e9f840>, <rdkit.Chem.rdchem.Mol object at 0x7f5838e9e490>, <rdkit.Chem.rdchem.Mol object at 0x7f5838e9f220>, <rdkit.Chem.rdchem.Mol object at 0x7f5838e9e7a0>, <rdkit.Chem.rdchem.Mol object at 0x7f5838e9dee0>, <rdkit.Chem.rdchem.Mol object at 0x7f5838e9fb50>, '.', <rdkit.Chem.rdchem.Mol object at 0x7f5838e9f680>, <rdkit.Chem.rdchem.Mol object at 0x7f5838e9c6d0>, <rdkit.Chem.rdchem.Mol object at 0x7f5838e9f610>, <rdkit.Chem.rdchem.Mol object at 0x7f5838e9c900>, <rdkit.Chem.rdchem.Mol object at 0x7f5838e9d850>]","[0, 0, 0, 0, 0, 506, 507, 508, 509, 510, 511, 1, 512, 513, 514, 515, 516]"
PBDT(T)[2F]T,ITIC,-5.22,-3.22,-5.574146341463415,-3.915,1.0,CB,10.0,_,160.0,9.8,9.85,0.94,62.0,"[<rdkit.Chem.rdchem.Mol object at 0x7f5838e9fd10>, <rdkit.Chem.rdchem.Mol object at 0x7f5838e9c7b0>, <rdkit.Chem.rdchem.Mol object at 0x7f5838e9f0d0>, <rdkit.Chem.rdchem.Mol object at 0x7f5838e9f1b0>]","[<rdkit.Chem.rdchem.Mol object at 0x7f5838e9fae0>, <rdkit.Chem.rdchem.Mol object at 0x7f5838e9fe60>, <rdkit.Chem.rdchem.Mol object at 0x7f5838e9eea0>, <rdkit.Chem.rdchem.Mol object at 0x7f5838e9fca0>, <rdkit.Chem.rdchem.Mol object at 0x7f5838e9fd80>]","[<rdkit.Chem.rdchem.Mol object at 0x7f5838e9fd10>, <rdkit.Chem.rdchem.Mol object at 0x7f5838e9c7b0>, <rdkit.Chem.rdchem.Mol object at 0x7f5838e9f0d0>, <rdkit.Chem.rdchem.Mol object at 0x7f5838e9f1b0>, '.', <rdkit.Chem.rdchem.Mol object at 0x7f5838e9fae0>, <rdkit.Chem.rdchem.Mol object at 0x7f5838e9fe60>, <rdkit.Chem.rdchem.Mol object at 0x7f5838e9eea0>, <rdkit.Chem.rdchem.Mol object at 0x7f5838e9fca0>, <rdkit.Chem.rdchem.Mol object at 0x7f5838e9fd80>]","[0, 0, 0, 0, 0, 0, 0, 517, 518, 519, 520, 1, 521, 522, 523, 524, 525]"
PBDT[2F]T,ITIC,-5.29,-3.19,-5.574146341463415,-3.915,1.5,CB,10.0,_,25.0,5.8,5.78,0.94,53.0,"[<rdkit.Chem.rdchem.Mol object at 0x7f5838e9f3e0>, <rdkit.Chem.rdchem.Mol object at 0x7f5838e9f8b0>, <rdkit.Chem.rdchem.Mol object at 0x7f5838e9f920>, <rdkit.Chem.rdchem.Mol object at 0x7f5838e9fa70>]","[<rdkit.Chem.rdchem.Mol object at 0x7f5838e9f7d0>, <rdkit.Chem.rdchem.Mol object at 0x7f5838e9fbc0>, <rdkit.Chem.rdchem.Mol object at 0x7f5838e9e880>, <rdkit.Chem.rdchem.Mol object at 0x7f5838e9fa00>, <rdkit.Chem.rdchem.Mol object at 0x7f5838e7c510>]","[<rdkit.Chem.rdchem.Mol object at 0x7f5838e9f3e0>, <rdkit.Chem.rdchem.Mol object at 0x7f5838e9f8b0>, <rdkit.Chem.rdchem.Mol object at 0x7f5838e9f920>, <rdkit.Chem.rdchem.Mol object at 0x7f5838e9fa70>, '.', <rdkit.Chem.rdchem.Mol object at 0x7f5838e9f7d0>, <rdkit.Chem.rdchem.Mol object at 0x7f5838e9fbc0>, <rdkit.Chem.rdchem.Mol object at 0x7f5838e9e880>, <rdkit.Chem.rdchem.Mol object at 0x7f5838e9fa00>, <rdkit.Chem.rdchem.Mol object at 0x7f5838e7c510>]","[0, 0, 0, 0, 0, 0, 0, 526, 527, 528, 529, 1, 530, 531, 532, 533, 534]"
PBDT-2TC,ITIC,-5.43,-3.57,-5.574146341463415,-3.915,1.0,CB,16.0,_,120.0,9.35,9.35,0.93,65.7,"[<rdkit.Chem.rdchem.Mol object at 0x7f5838e9fdf0>, <rdkit.Chem.rdchem.Mol object at 0x7f5838e9fed0>, <rdkit.Chem.rdchem.Mol object at 0x7f5838e9f990>, <rdkit.Chem.rdchem.Mol object at 0x7f5838e9ff40>, <rdkit.Chem.rdchem.Mol object at 0x7f5838e7c5f0>, <rdkit.Chem.rdchem.Mol object at 0x7f5838e7c890>, <rdkit.Chem.rdchem.Mol object at 0x7f5838e7c200>, <rdkit.Chem.rdchem.Mol object at 0x7f5838e7cd60>]","[<rdkit.Chem.rdchem.Mol object at 0x7f5838e7cb30>, <rdkit.Chem.rdchem.Mol object at 0x7f5838e7c580>, <rdkit.Chem.rdchem.Mol object at 0x7f5838e9f530>, <rdkit.Chem.rdchem.Mol object at 0x7f5838e7c350>, <rdkit.Chem.rdchem.Mol object at 0x7f5838e7cdd0>]","[<rdkit.Chem.rdchem.Mol object at 0x7f5838e9fdf0>, <rdkit.Chem.rdchem.Mol object at 0x7f5838e9fed0>, <rdkit.Chem.rdchem.Mol object at 0x7f5838e9f990>, <rdkit.Chem.rdchem.Mol object at 0x7f5838e9ff40>, <rdkit.Chem.rdchem.Mol object at 0x7f5838e7c5f0>, <rdkit.Chem.rdchem.Mol object at 0x7f5838e7c890>, <rdkit.Chem.rdchem.Mol object at 0x7f5838e7c200>, <rdkit.Chem.rdchem.Mol object at 0x7f5838e7cd60>, '.', <rdkit.Chem.rdchem.Mol object at 0x7f5838e7cb30>, <rdkit.Chem.rdchem.Mol object at 0x7f5838e7c580>, <rdkit.Chem.rdchem.Mol object at 0x7f5838e9f530>, <rdkit.Chem.rdchem.Mol object at 0x7f5838e7c350>, <rdkit.Chem.rdchem.Mol object at 0x7f5838e7cdd0>]","[0, 0, 0, 544, 545, 546, 547, 548, 549, 550, 551, 1, 552, 553, 554, 555, 556]"
PBDT-FBT,ITIC,-5.14,-3.35,-5.574146341463415,-3.915,1.0,CB,20.0,DIO,25.0,7.15,7.18,0.82,63.8,"[<rdkit.Chem.rdchem.Mol object at 0x7f5838e9f760>, <rdkit.Chem.rdchem.Mol object at 0x7f5838e7d000>, <rdkit.Chem.rdchem.Mol object at 0x7f5838e7d2a0>, <rdkit.Chem.rdchem.Mol object at 0x7f5838e7da80>, <rdkit.Chem.rdchem.Mol object at 0x7f5838e7e110>, <rdkit.Chem.rdchem.Mol object at 0x7f5838e7daf0>, <rdkit.Chem.rdchem.Mol object at 0x7f5838e7d8c0>, <rdkit.Chem.rdchem.Mol object at 0x7f5838e7e2d0>]","[<rdkit.Chem.rdchem.Mol object at 0x7f5838e7d380>, <rdkit.Chem.rdchem.Mol object at 0x7f5838e7c040>, <rdkit.Chem.rdchem.Mol object at 0x7f5838e7d770>, <rdkit.Chem.rdchem.Mol object at 0x7f5838e7cf20>, <rdkit.Chem.rdchem.Mol object at 0x7f5838e7d7e0>]","[<rdkit.Chem.rdchem.Mol object at 0x7f5838e9f760>, <rdkit.Chem.rdchem.Mol object at 0x7f5838e7d000>, <rdkit.Chem.rdchem.Mol object at 0x7f5838e7d2a0>, <rdkit.Chem.rdchem.Mol object at 0x7f5838e7da80>, <rdkit.Chem.rdchem.Mol object at 0x7f5838e7e110>, <rdkit.Chem.rdchem.Mol object at 0x7f5838e7daf0>, <rdkit.Chem.rdchem.Mol object at 0x7f5838e7d8c0>, <rdkit.Chem.rdchem.Mol object at 0x7f5838e7e2d0>, '.', <rdkit.Chem.rdchem.Mol object at 0x7f5838e7d380>, <rdkit.Chem.rdchem.Mol object at 0x7f5838e7c040>, <rdkit.Chem.rdchem.Mol object at 0x7f5838e7d770>, <rdkit.Chem.rdchem.Mol object at 0x7f5838e7cf20>, <rdkit.Chem.rdchem.Mol object at 0x7f5838e7d7e0>]","[0, 0, 0, 582, 583, 584, 585, 586, 587, 588, 589, 1, 590, 591, 592, 593, 594]"
PBDTF-FBT,ITIC,-5.34,-3.53,-5.574146341463415,-3.915,1.0,CB,20.0,DIO,25.0,9.17,9.18,0.9,66.3,"[<rdkit.Chem.rdchem.Mol object at 0x7f5838e7cba0>, <rdkit.Chem.rdchem.Mol object at 0x7f5838e7d700>, <rdkit.Chem.rdchem.Mol object at 0x7f5838e7df50>, <rdkit.Chem.rdchem.Mol object at 0x7f5838e7e180>, <rdkit.Chem.rdchem.Mol object at 0x7f5838e7d620>, <rdkit.Chem.rdchem.Mol object at 0x7f5838e7c270>, <rdkit.Chem.rdchem.Mol object at 0x7f5838e7ce40>, <rdkit.Chem.rdchem.Mol object at 0x7f5838e7de00>, <rdkit.Chem.rdchem.Mol object at 0x7f5838e7e5e0>]","[<rdkit.Chem.rdchem.Mol object at 0x7f5838e7e0a0>, <rdkit.Chem.rdchem.Mol object at 0x7f5838e7d690>, <rdkit.Chem.rdchem.Mol object at 0x7f5838e7dfc0>, <rdkit.Chem.rdchem.Mol object at 0x7f5838e7c0b0>, <rdkit.Chem.rdchem.Mol object at 0x7f5838e7c120>]","[<rdkit.Chem.rdchem.Mol object at 0x7f5838e7cba0>, <rdkit.Chem.rdchem.Mol object at 0x7f5838e7d700>, <rdkit.Chem.rdchem.Mol object at 0x7f5838e7df50>, <rdkit.Chem.rdchem.Mol object at 0x7f5838e7e180>, <rdkit.Chem.rdchem.Mol object at 0x7f5838e7d620>, <rdkit.Chem.rdchem.Mol object at 0x7f5838e7c270>, <rdkit.Chem.rdchem.Mol object at 0x7f5838e7ce40>, <rdkit.Chem.rdchem.Mol object at 0x7f5838e7de00>, <rdkit.Chem.rdchem.Mol object at 0x7f5838e7e5e0>, '.', <rdkit.Chem.rdchem.Mol object at 0x7f5838e7e0a0>, <rdkit.Chem.rdchem.Mol object at 0x7f5838e7d690>, <rdkit.Chem.rdchem.Mol object at 0x7f5838e7dfc0>, <rdkit.Chem.rdchem.Mol object at 0x7f5838e7c0b0>, <rdkit.Chem.rdchem.Mol object at 0x7f5838e7c120>]","[0, 0, 595, 596, 597, 598, 599, 600, 601, 602, 603, 1, 604, 605, 606, 607, 608]"
PBDTS-FBT,ITIC,-5.2,-3.4,-5.574146341463415,-3.915,1.0,CB,20.0,DIO,25.0,8.58,8.58,0.89,65.9,"[<rdkit.Chem.rdchem.Mol object at 0x7f5838e7dee0>, <rdkit.Chem.rdchem.Mol object at 0x7f5838e7e490>, <rdkit.Chem.rdchem.Mol object at 0x7f5838e7e6c0>, <rdkit.Chem.rdchem.Mol object at 0x7f5838e7e340>, <rdkit.Chem.rdchem.Mol object at 0x7f5838e7d230>, <rdkit.Chem.rdchem.Mol object at 0x7f5838e7e500>, <rdkit.Chem.rdchem.Mol object at 0x7f5838e7e1f0>, <rdkit.Chem.rdchem.Mol object at 0x7f5838e7ed50>]","[<rdkit.Chem.rdchem.Mol object at 0x7f5838e7e880>, <rdkit.Chem.rdchem.Mol object at 0x7f5838e7d1c0>, <rdkit.Chem.rdchem.Mol object at 0x7f5838e7ca50>, <rdkit.Chem.rdchem.Mol object at 0x7f5838e7dc40>, <rdkit.Chem.rdchem.Mol object at 0x7f5838e7c740>]","[<rdkit.Chem.rdchem.Mol object at 0x7f5838e7dee0>, <rdkit.Chem.rdchem.Mol object at 0x7f5838e7e490>, <rdkit.Chem.rdchem.Mol object at 0x7f5838e7e6c0>, <rdkit.Chem.rdchem.Mol object at 0x7f5838e7e340>, <rdkit.Chem.rdchem.Mol object at 0x7f5838e7d230>, <rdkit.Chem.rdchem.Mol object at 0x7f5838e7e500>, <rdkit.Chem.rdchem.Mol object at 0x7f5838e7e1f0>, <rdkit.Chem.rdchem.Mol object at 0x7f5838e7ed50>, '.', <rdkit.Chem.rdchem.Mol object at 0x7f5838e7e880>, <rdkit.Chem.rdchem.Mol object at 0x7f5838e7d1c0>, <rdkit.Chem.rdchem.Mol object at 0x7f5838e7ca50>, <rdkit.Chem.rdchem.Mol object at 0x7f5838e7dc40>, <rdkit.Chem.rdchem.Mol object at 0x7f5838e7c740>]","[0, 0, 0, 609, 610, 611, 612, 613, 614, 615, 616, 1, 617, 618, 619, 620, 621]"
PBDT-NQx,ITIC,-5.24,-3.42,-5.574146341463415,-3.915,1.25,CB,20.0,DIO,25.0,9.11,9.11,0.87,64.6,"[<rdkit.Chem.rdchem.Mol object at 0x7f5838e7e260>, <rdkit.Chem.rdchem.Mol object at 0x7f5838e7dcb0>, <rdkit.Chem.rdchem.Mol object at 0x7f5838e7ef10>, <rdkit.Chem.rdchem.Mol object at 0x7f5838e7f370>, <rdkit.Chem.rdchem.Mol object at 0x7f5838e7f610>, <rdkit.Chem.rdchem.Mol object at 0x7f5838e75070>, <rdkit.Chem.rdchem.Mol object at 0x7f5838f2c4a0>]","[<rdkit.Chem.rdchem.Mol object at 0x7f5838e77ca0>, <rdkit.Chem.rdchem.Mol object at 0x7f5838e77d80>, <rdkit.Chem.rdchem.Mol object at 0x7f5838e774c0>, <rdkit.Chem.rdchem.Mol object at 0x7f5838e77d10>, <rdkit.Chem.rdchem.Mol object at 0x7f5838e77a00>]","[<rdkit.Chem.rdchem.Mol object at 0x7f5838e7e260>, <rdkit.Chem.rdchem.Mol object at 0x7f5838e7dcb0>, <rdkit.Chem.rdchem.Mol object at 0x7f5838e7ef10>, <rdkit.Chem.rdchem.Mol object at 0x7f5838e7f370>, <rdkit.Chem.rdchem.Mol object at 0x7f5838e7f610>, <rdkit.Chem.rdchem.Mol object at 0x7f5838e75070>, <rdkit.Chem.rdchem.Mol object at 0x7f5838f2c4a0>, '.', <rdkit.Chem.rdchem.Mol object at 0x7f5838e77ca0>, <rdkit.Chem.rdchem.Mol object at 0x7f5838e77d80>, <rdkit.Chem.rdchem.Mol object at 0x7f5838e774c0>, <rdkit.Chem.rdchem.Mol object at 0x7f5838e77d10>, <rdkit.Chem.rdchem.Mol object at 0x7f5838e77a00>]","[0, 0, 0, 0, 635, 636, 637, 638, 639, 640, 641, 1, 642, 643, 644, 645, 646]"
PBDTS-NQx,ITIC,-5.31,-3.46,-5.574146341463415,-3.915,1.25,CB,20.0,DIO,25.0,11.47,11.47,0.92,69.8,"[<rdkit.Chem.rdchem.Mol object at 0x7f5838e778b0>, <rdkit.Chem.rdchem.Mol object at 0x7f5838e77060>, <rdkit.Chem.rdchem.Mol object at 0x7f5838e77e60>, <rdkit.Chem.rdchem.Mol object at 0x7f5838e77530>, <rdkit.Chem.rdchem.Mol object at 0x7f5838e76e30>, <rdkit.Chem.rdchem.Mol object at 0x7f5838e75380>, <rdkit.Chem.rdchem.Mol object at 0x7f5838f2c580>]","[<rdkit.Chem.rdchem.Mol object at 0x7f5838e7f140>, <rdkit.Chem.rdchem.Mol object at 0x7f5838e7eea0>, <rdkit.Chem.rdchem.Mol object at 0x7f5838e7eff0>, <rdkit.Chem.rdchem.Mol object at 0x7f5838e7dbd0>, <rdkit.Chem.rdchem.Mol object at 0x7f5838e7e3b0>]","[<rdkit.Chem.rdchem.Mol object at 0x7f5838e778b0>, <rdkit.Chem.rdchem.Mol object at 0x7f5838e77060>, <rdkit.Chem.rdchem.Mol object at 0x7f5838e77e60>, <rdkit.Chem.rdchem.Mol object at 0x7f5838e77530>, <rdkit.Chem.rdchem.Mol object at 0x7f5838e76e30>, <rdkit.Chem.rdchem.Mol object at 0x7f5838e75380>, <rdkit.Chem.rdchem.Mol object at 0x7f5838f2c580>, '.', <rdkit.Chem.rdchem.Mol object at 0x7f5838e7f140>, <rdkit.Chem.rdchem.Mol object at 0x7f5838e7eea0>, <rdkit.Chem.rdchem.Mol object at 0x7f5838e7eff0>, <rdkit.Chem.rdchem.Mol object at 0x7f5838e7dbd0>, <rdkit.Chem.rdchem.Mol object at 0x7f5838e7e3b0>]","[0, 0, 0, 0, 647, 648, 649, 650, 651, 652, 653, 1, 654, 655, 656, 657, 658]"
PBDTS-TDZ,ITIC,-5.39,-2.8,-5.574146341463415,-3.915,1.0,o-xylene,20.0,_,25.0,12.8,12.79,1.1,65.4,"[<rdkit.Chem.rdchem.Mol object at 0x7f5838e7fa00>, <rdkit.Chem.rdchem.Mol object at 0x7f5838e7f6f0>, <rdkit.Chem.rdchem.Mol object at 0x7f5838e7f4c0>, <rdkit.Chem.rdchem.Mol object at 0x7f5838e7e960>, <rdkit.Chem.rdchem.Mol object at 0x7f5838e7ec70>, <rdkit.Chem.rdchem.Mol object at 0x7f5838e7f5a0>, <rdkit.Chem.rdchem.Mol object at 0x7f5838e7ef80>, <rdkit.Chem.rdchem.Mol object at 0x7f5838e7fae0>]","[<rdkit.Chem.rdchem.Mol object at 0x7f5838e7ec00>, <rdkit.Chem.rdchem.Mol object at 0x7f5838e7d0e0>, <rdkit.Chem.rdchem.Mol object at 0x7f5838e7e7a0>, <rdkit.Chem.rdchem.Mol object at 0x7f5838e7d150>, <rdkit.Chem.rdchem.Mol object at 0x7f5838e7cc80>]","[<rdkit.Chem.rdchem.Mol object at 0x7f5838e7fa00>, <rdkit.Chem.rdchem.Mol object at 0x7f5838e7f6f0>, <rdkit.Chem.rdchem.Mol object at 0x7f5838e7f4c0>, <rdkit.Chem.rdchem.Mol object at 0x7f5838e7e960>, <rdkit.Chem.rdchem.Mol object at 0x7f5838e7ec70>, <rdkit.Chem.rdchem.Mol object at 0x7f5838e7f5a0>, <rdkit.Chem.rdchem.Mol object at 0x7f5838e7ef80>, <rdkit.Chem.rdchem.Mol object at 0x7f5838e7fae0>, '.', <rdkit.Chem.rdchem.Mol object at 0x7f5838e7ec00>, <rdkit.Chem.rdchem.Mol object at 0x7f5838e7d0e0>, <rdkit.Chem.rdchem.Mol object at 0x7f5838e7e7a0>, <rdkit.Chem.rdchem.Mol object at 0x7f5838e7d150>, <rdkit.Chem.rdchem.Mol object at 0x7f5838e7cc80>]","[0, 0, 0, 659, 660, 661, 662, 663, 664, 665, 666, 1, 667, 668, 669, 670, 671]"
PBDT-TDZ,ITIC,-5.35,-2.78,-5.574146341463415,-3.915,1.0,o-xylene,20.0,_,25.0,9.43,9.43,1.02,58.1,"[<rdkit.Chem.rdchem.Mol object at 0x7f5838e7e420>, <rdkit.Chem.rdchem.Mol object at 0x7f5838e7edc0>, <rdkit.Chem.rdchem.Mol object at 0x7f5838e7fb50>, <rdkit.Chem.rdchem.Mol object at 0x7f5838e7fed0>, <rdkit.Chem.rdchem.Mol object at 0x7f5838e7dd90>, <rdkit.Chem.rdchem.Mol object at 0x7f5838e7e570>, <rdkit.Chem.rdchem.Mol object at 0x7f5838e7ee30>, <rdkit.Chem.rdchem.Mol object at 0x7f5838e7f7d0>]","[<rdkit.Chem.rdchem.Mol object at 0x7f5838e7f300>, <rdkit.Chem.rdchem.Mol object at 0x7f5838e7f8b0>, <rdkit.Chem.rdchem.Mol object at 0x7f5838e7fd10>, <rdkit.Chem.rdchem.Mol object at 0x7f5838e7f920>, <rdkit.Chem.rdchem.Mol object at 0x7f5838e7f530>]","[<rdkit.Chem.rdchem.Mol object at 0x7f5838e7e420>, <rdkit.Chem.rdchem.Mol object at 0x7f5838e7edc0>, <rdkit.Chem.rdchem.Mol object at 0x7f5838e7fb50>, <rdkit.Chem.rdchem.Mol object at 0x7f5838e7fed0>, <rdkit.Chem.rdchem.Mol object at 0x7f5838e7dd90>, <rdkit.Chem.rdchem.Mol object at 0x7f5838e7e570>, <rdkit.Chem.rdchem.Mol object at 0x7f5838e7ee30>, <rdkit.Chem.rdchem.Mol object at 0x7f5838e7f7d0>, '.', <rdkit.Chem.rdchem.Mol object at 0x7f5838e7f300>, <rdkit.Chem.rdchem.Mol object at 0x7f5838e7f8b0>, <rdkit.Chem.rdchem.Mol object at 0x7f5838e7fd10>, <rdkit.Chem.rdchem.Mol object at 0x7f5838e7f920>, <rdkit.Chem.rdchem.Mol object at 0x7f5838e7f530>]","[0, 0, 0, 672, 673, 674, 675, 676, 677, 678, 679, 1, 680, 681, 682, 683, 684]"