Donor,Acceptor,HOMO_D_eV,LUMO_D_eV,HOMO_A_eV,LUMO_A_eV,D_A_ratio_m_m,solvent,total_solids_conc_mg_mL,solvent_additive,annealing_temperature,PCE_percent,calc_PCE_percent,Voc_V,Jsc_mA_cm_pow_neg2,FF_percent,Donor_BRICS,Acceptor_BRICS,DA_pair_BRICS,DA_tokenized_BRICS
PTB7-Th,IDT-T-N,-5.204782608695651,-3.5391891891891896,-5.58,-4.06,1.0,CF,10.0,CN,100.0,6.6,6.56,0.87,14.67,51.38,"['[3*]O[3*]', '[4*]CC(CC)CCCC', '[1*]C([6*])=O', '[8*]CC(CC)CCCC', '[14*]c1sc2c([14*])sc(C)c2c1F', '[14*]c1ccc([14*])s1', '[14*]c1cc2c([16*])c3sc(C)cc3c([16*])c2s1']","['[7*]C(C#N)C#N', '[7*]C1C(=O)c2cc3ccccc3cc2C1[7*]', '[7*]C[8*]', '[8*]CC(CC)CCCC', '[8*]CCCCCC', '[14*]c1cc([16*])c([14*])s1', '[14*]c1cc2c(s1)-c1cc3c(cc1C2(c1ccc([16*])cc1)c1ccc([16*])cc1)-c1sc([14*])cc1C3(c1ccc([16*])cc1)c1ccc([16*])cc1']","['[3*]O[3*]', '[4*]CC(CC)CCCC', '[1*]C([6*])=O', '[8*]CC(CC)CCCC', '[14*]c1sc2c([14*])sc(C)c2c1F', '[14*]c1ccc([14*])s1', '[14*]c1cc2c([16*])c3sc(C)cc3c([16*])c2s1', '.', '[7*]C(C#N)C#N', '[7*]C1C(=O)c2cc3ccccc3cc2C1[7*]', '[7*]C[8*]', '[8*]CC(CC)CCCC', '[8*]CCCCCC', '[14*]c1cc([16*])c([14*])s1', '[14*]c1cc2c(s1)-c1cc3c(cc1C2(c1ccc([16*])cc1)c1ccc([16*])cc1)-c1sc([14*])cc1C3(c1ccc([16*])cc1)c1ccc([16*])cc1']","[0, 0, 2, 3, 4, 5, 35, 7, 9, 1, 10, 40, 12, 5, 13, 34, 38]"
PBDB-T,IDT-N,-5.297714285714285,-3.4170000000000003,-5.73,-4.08,1.0,CF,10.0,CN,100.0,8.99,9.02,0.79,15.88,71.91,"['[8*]CC(CC)CCCC', '[14*]c1ccc(C)s1', '[14*]c1ccc([14*])s1', '[14*]c1sc([14*])c2c1C(=O)c1c([14*])sc([14*])c1C2=O', '[14*]c1cc2c([16*])c3sc(C)cc3c([16*])c2s1']","['[7*]C(C#N)C#N', '[7*]C1C(=O)c2cc3ccccc3cc2C1[7*]', '[7*]C[8*]', '[8*]CCCCCC', '[14*]c1cc2c(s1)-c1cc3c(cc1C2(c1ccc([16*])cc1)c1ccc([16*])cc1)-c1sc([14*])cc1C3(c1ccc([16*])cc1)c1ccc([16*])cc1']","['[8*]CC(CC)CCCC', '[14*]c1ccc(C)s1', '[14*]c1ccc([14*])s1', '[14*]c1sc([14*])c2c1C(=O)c1c([14*])sc([14*])c1C2=O', '[14*]c1cc2c([16*])c3sc(C)cc3c([16*])c2s1', '.', '[7*]C(C#N)C#N', '[7*]C1C(=O)c2cc3ccccc3cc2C1[7*]', '[7*]C[8*]', '[8*]CCCCCC', '[14*]c1cc2c(s1)-c1cc3c(cc1C2(c1ccc([16*])cc1)c1ccc([16*])cc1)-c1sc([14*])cc1C3(c1ccc([16*])cc1)c1ccc([16*])cc1']","[0, 0, 0, 0, 0, 0, 5, 6, 7, 30, 9, 1, 10, 40, 12, 13, 38]"
PBDB-T,IDT-T-N,-5.297714285714285,-3.4170000000000003,-5.58,-4.06,1.0,CF,10.0,CN,100.0,7.4,7.4,0.94,14.03,56.11,"['[8*]CC(CC)CCCC', '[14*]c1ccc(C)s1', '[14*]c1ccc([14*])s1', '[14*]c1sc([14*])c2c1C(=O)c1c([14*])sc([14*])c1C2=O', '[14*]c1cc2c([16*])c3sc(C)cc3c([16*])c2s1']","['[7*]C(C#N)C#N', '[7*]C1C(=O)c2cc3ccccc3cc2C1[7*]', '[7*]C[8*]', '[8*]CC(CC)CCCC', '[8*]CCCCCC', '[14*]c1cc([16*])c([14*])s1', '[14*]c1cc2c(s1)-c1cc3c(cc1C2(c1ccc([16*])cc1)c1ccc([16*])cc1)-c1sc([14*])cc1C3(c1ccc([16*])cc1)c1ccc([16*])cc1']","['[8*]CC(CC)CCCC', '[14*]c1ccc(C)s1', '[14*]c1ccc([14*])s1', '[14*]c1sc([14*])c2c1C(=O)c1c([14*])sc([14*])c1C2=O', '[14*]c1cc2c([16*])c3sc(C)cc3c([16*])c2s1', '.', '[7*]C(C#N)C#N', '[7*]C1C(=O)c2cc3ccccc3cc2C1[7*]', '[7*]C[8*]', '[8*]CC(CC)CCCC', '[8*]CCCCCC', '[14*]c1cc([16*])c([14*])s1', '[14*]c1cc2c(s1)-c1cc3c(cc1C2(c1ccc([16*])cc1)c1ccc([16*])cc1)-c1sc([14*])cc1C3(c1ccc([16*])cc1)c1ccc([16*])cc1']","[0, 0, 0, 0, 5, 6, 7, 30, 9, 1, 10, 40, 12, 5, 13, 34, 38]"
PTB7-Th,p-IDTIDT-IC,-5.204782608695651,-3.5391891891891896,-5.42,-3.82,0.667,o-DCB,25.0,_,150.0,6.48,6.47,0.94,14.49,47.5,"['[3*]O[3*]', '[4*]CC(CC)CCCC', '[1*]C([6*])=O', '[8*]CC(CC)CCCC', '[14*]c1sc2c([14*])sc(C)c2c1F', '[14*]c1ccc([14*])s1', '[14*]c1cc2c([16*])c3sc(C)cc3c([16*])c2s1']","['[7*]C(C#N)C#N', '[7*]C1C(=O)c2ccccc2C1[7*]', '[7*]C[8*]', '[8*]CCCCCC', '[14*]c1cc2c(s1)-c1cc3c(cc1C2(c1ccc([16*])cc1)c1ccc([16*])cc1)-c1sc2c4c(sc2c1C3(c1ccc([16*])cc1)c1ccc([16*])cc1)-c1cc2c(cc1C4(c1ccc([16*])cc1)c1ccc([16*])cc1)-c1sc([14*])cc1C2(c1ccc([16*])cc1)c1ccc([16*])cc1']","['[3*]O[3*]', '[4*]CC(CC)CCCC', '[1*]C([6*])=O', '[8*]CC(CC)CCCC', '[14*]c1sc2c([14*])sc(C)c2c1F', '[14*]c1ccc([14*])s1', '[14*]c1cc2c([16*])c3sc(C)cc3c([16*])c2s1', '.', '[7*]C(C#N)C#N', '[7*]C1C(=O)c2ccccc2C1[7*]', '[7*]C[8*]', '[8*]CCCCCC', '[14*]c1cc2c(s1)-c1cc3c(cc1C2(c1ccc([16*])cc1)c1ccc([16*])cc1)-c1sc2c4c(sc2c1C3(c1ccc([16*])cc1)c1ccc([16*])cc1)-c1cc2c(cc1C4(c1ccc([16*])cc1)c1ccc([16*])cc1)-c1sc([14*])cc1C2(c1ccc([16*])cc1)c1ccc([16*])cc1']","[0, 0, 0, 0, 2, 3, 4, 5, 35, 7, 9, 1, 10, 11, 12, 13, 157]"
PBDB-TF,IDT-C6,-5.497142857142857,-3.6428571428571423,-5.59,-3.35,1.0,CF,16.0,DIO,100.0,12.5,12.43,0.96,17.5,74.0,"['[8*]CC(CC)CCCC', '[14*]c1ccc(C)s1', '[14*]c1cc(F)c([14*])s1', '[14*]c1sc([14*])c2c1C(=O)c1c([14*])sc([14*])c1C2=O', '[14*]c1ccc([14*])s1', '[14*]c1cc2c([16*])c3sc(C)cc3c([16*])c2s1']","['[7*]C(C#N)C#N', '[7*]C1C(=O)c2ccc(C)cc2C1[7*]', '[7*]C[8*]', '[14*]c1cc2c(s1)-c1cc3c(cc1C2(CCCCCC)CCCCCC)-c1sc([14*])cc1C3(CCCCCC)CCCCCC']","['[8*]CC(CC)CCCC', '[14*]c1ccc(C)s1', '[14*]c1cc(F)c([14*])s1', '[14*]c1sc([14*])c2c1C(=O)c1c([14*])sc([14*])c1C2=O', '[14*]c1ccc([14*])s1', '[14*]c1cc2c([16*])c3sc(C)cc3c([16*])c2s1', '.', '[7*]C(C#N)C#N', '[7*]C1C(=O)c2ccc(C)cc2C1[7*]', '[7*]C[8*]', '[14*]c1cc2c(s1)-c1cc3c(cc1C2(CCCCCC)CCCCCC)-c1sc([14*])cc1C3(CCCCCC)CCCCCC']","[0, 0, 0, 0, 0, 0, 5, 6, 24, 30, 7, 9, 1, 10, 16, 12, 29]"
PBDB-TF,IDT-PhC6,-5.497142857142857,-3.6428571428571423,-5.56,-3.32,1.0,CF,16.0,DIO,100.0,5.6,5.59,1.0,13.0,43.0,"['[8*]CC(CC)CCCC', '[14*]c1ccc(C)s1', '[14*]c1cc(F)c([14*])s1', '[14*]c1sc([14*])c2c1C(=O)c1c([14*])sc([14*])c1C2=O', '[14*]c1ccc([14*])s1', '[14*]c1cc2c([16*])c3sc(C)cc3c([16*])c2s1']","['[7*]C(C#N)C#N', '[7*]C1C(=O)c2ccc(C)cc2C1[7*]', '[7*]C[8*]', '[8*]CCCCCC', '[14*]c1cc2c(s1)-c1cc3c(cc1C2(c1ccc([16*])cc1)c1ccc([16*])cc1)-c1sc([14*])cc1C3(c1ccc([16*])cc1)c1ccc([16*])cc1']","['[8*]CC(CC)CCCC', '[14*]c1ccc(C)s1', '[14*]c1cc(F)c([14*])s1', '[14*]c1sc([14*])c2c1C(=O)c1c([14*])sc([14*])c1C2=O', '[14*]c1ccc([14*])s1', '[14*]c1cc2c([16*])c3sc(C)cc3c([16*])c2s1', '.', '[7*]C(C#N)C#N', '[7*]C1C(=O)c2ccc(C)cc2C1[7*]', '[7*]C[8*]', '[8*]CCCCCC', '[14*]c1cc2c(s1)-c1cc3c(cc1C2(c1ccc([16*])cc1)c1ccc([16*])cc1)-c1sc([14*])cc1C3(c1ccc([16*])cc1)c1ccc([16*])cc1']","[0, 0, 0, 0, 0, 5, 6, 24, 30, 7, 9, 1, 10, 16, 12, 13, 38]"
PBDB-T,FDNCTF,-5.297714285714285,-3.4170000000000003,-5.42,-3.73,1.25,CB,19.8,_,25.0,10.0,9.8,0.94,15.8,66.0,"['[8*]CC(CC)CCCC', '[14*]c1ccc(C)s1', '[14*]c1ccc([14*])s1', '[14*]c1sc([14*])c2c1C(=O)c1c([14*])sc([14*])c1C2=O', '[14*]c1cc2c([16*])c3sc(C)cc3c([16*])c2s1']","['[7*]C(C#N)C#N', '[7*]C1C(=O)c2cc3ccccc3cc2C1[7*]', '[7*]C[8*]', '[14*]c1cc2c(s1)-c1cc3c(cc1C2(CCCCCCCC)CCCCCCCC)-c1cc2c(cc1C3(CCCCCCCC)CCCCCCCC)-c1sc([14*])cc1C2(CCCCCCCC)CCCCCCCC']","['[8*]CC(CC)CCCC', '[14*]c1ccc(C)s1', '[14*]c1ccc([14*])s1', '[14*]c1sc([14*])c2c1C(=O)c1c([14*])sc([14*])c1C2=O', '[14*]c1cc2c([16*])c3sc(C)cc3c([16*])c2s1', '.', '[7*]C(C#N)C#N', '[7*]C1C(=O)c2cc3ccccc3cc2C1[7*]', '[7*]C[8*]', '[14*]c1cc2c(s1)-c1cc3c(cc1C2(CCCCCCCC)CCCCCCCC)-c1cc2c(cc1C3(CCCCCCCC)CCCCCCCC)-c1sc([14*])cc1C2(CCCCCCCC)CCCCCCCC']","[0, 0, 0, 0, 0, 0, 0, 5, 6, 7, 30, 9, 1, 10, 40, 12, 110]"
PBDB-T,FDICTF,-5.297714285714285,-3.4170000000000003,-5.43,-3.71,1.25,CB,19.8,_,25.0,11.2,10.99,0.93,16.3,72.5,"['[8*]CC(CC)CCCC', '[14*]c1ccc(C)s1', '[14*]c1ccc([14*])s1', '[14*]c1sc([14*])c2c1C(=O)c1c([14*])sc([14*])c1C2=O', '[14*]c1cc2c([16*])c3sc(C)cc3c([16*])c2s1']","['[7*]C(C#N)C#N', '[7*]C1C(=O)c2ccccc2C1[7*]', '[7*]C[8*]', '[14*]c1cc2c(s1)-c1cc3c(cc1C2(CCCCCCCC)CCCCCCCC)-c1cc2c(cc1C3(CCCCCCCC)CCCCCCCC)-c1sc([14*])cc1C2(CCCCCCCC)CCCCCCCC']","['[8*]CC(CC)CCCC', '[14*]c1ccc(C)s1', '[14*]c1ccc([14*])s1', '[14*]c1sc([14*])c2c1C(=O)c1c([14*])sc([14*])c1C2=O', '[14*]c1cc2c([16*])c3sc(C)cc3c([16*])c2s1', '.', '[7*]C(C#N)C#N', '[7*]C1C(=O)c2ccccc2C1[7*]', '[7*]C[8*]', '[14*]c1cc2c(s1)-c1cc3c(cc1C2(CCCCCCCC)CCCCCCCC)-c1cc2c(cc1C3(CCCCCCCC)CCCCCCCC)-c1sc([14*])cc1C2(CCCCCCCC)CCCCCCCC']","[0, 0, 0, 0, 0, 0, 0, 5, 6, 7, 30, 9, 1, 10, 11, 12, 110]"
PTB7-Th,DTNR,-5.204782608695651,-3.5391891891891896,-5.22,-3.5,0.667,CB,20.0,CN,25.0,9.51,9.51,1.08,15.72,56.0,"['[3*]O[3*]', '[4*]CC(CC)CCCC', '[1*]C([6*])=O', '[8*]CC(CC)CCCC', '[14*]c1sc2c([14*])sc(C)c2c1F', '[14*]c1ccc([14*])s1', '[14*]c1cc2c([16*])c3sc(C)cc3c([16*])c2s1']","['[8*]CC', '[7*]C1SC(=S)N([10*])C1=O', '[7*]C[8*]', '[16*]c1ccc([16*])c2nsnc12', '[14*]c1cc2c(s1)-c1c(ccc3c4c(ccc13)C(CC(CC)CCCC)(CC(CC)CCCC)c1cc([14*])sc1-4)C2(CC(CC)CCCC)CC(CC)CCCC']","['[3*]O[3*]', '[4*]CC(CC)CCCC', '[1*]C([6*])=O', '[8*]CC(CC)CCCC', '[14*]c1sc2c([14*])sc(C)c2c1F', '[14*]c1ccc([14*])s1', '[14*]c1cc2c([16*])c3sc(C)cc3c([16*])c2s1', '.', '[8*]CC', '[7*]C1SC(=S)N([10*])C1=O', '[7*]C[8*]', '[16*]c1ccc([16*])c2nsnc12', '[14*]c1cc2c(s1)-c1c(ccc3c4c(ccc13)C(CC(CC)CCCC)(CC(CC)CCCC)c1cc([14*])sc1-4)C2(CC(CC)CCCC)CC(CC)CCCC']","[0, 0, 0, 0, 2, 3, 4, 5, 35, 7, 9, 1, 22, 76, 12, 127, 159]"
PBDB-T,DTNIC8,-5.297714285714285,-3.4170000000000003,-5.91,-3.93,1.0,CB,18.0,_,25.0,9.03,9.03,0.96,12.92,72.84,"['[8*]CC(CC)CCCC', '[14*]c1ccc(C)s1', '[14*]c1ccc([14*])s1', '[14*]c1sc([14*])c2c1C(=O)c1c([14*])sc([14*])c1C2=O', '[14*]c1cc2c([16*])c3sc(C)cc3c([16*])c2s1']","['[7*]C(C#N)C#N', '[7*]C1C(=O)c2ccccc2C1[7*]', '[7*]C[8*]', '[14*]c1cc2c(s1)-c1c(ccc3c4c(ccc13)C(CC(CC)CCCC)(CC(CC)CCCC)c1cc([14*])sc1-4)C2(CC(CC)CCCC)CC(CC)CCCC']","['[8*]CC(CC)CCCC', '[14*]c1ccc(C)s1', '[14*]c1ccc([14*])s1', '[14*]c1sc([14*])c2c1C(=O)c1c([14*])sc([14*])c1C2=O', '[14*]c1cc2c([16*])c3sc(C)cc3c([16*])c2s1', '.', '[7*]C(C#N)C#N', '[7*]C1C(=O)c2ccccc2C1[7*]', '[7*]C[8*]', '[14*]c1cc2c(s1)-c1c(ccc3c4c(ccc13)C(CC(CC)CCCC)(CC(CC)CCCC)c1cc([14*])sc1-4)C2(CC(CC)CCCC)CC(CC)CCCC']","[0, 0, 0, 0, 0, 0, 0, 5, 6, 7, 30, 9, 1, 10, 11, 12, 159]"
P1_BDT-TBT,PY1,-5.1,-3.48,-5.27,-4.0,0.5,CF,18.0,DIO,25.0,4.89,4.89,0.83,10.53,56.0,"['[3*]OS[11*]', '[4*]CCCCCCCCCCCC', '[14*]c1cc2c([16*])c3sc(C)cc3c([16*])c2s1', '[14*]c1ccc(C)s1', '[14*]c1ccc([14*])s1', '[16*]c1ccc([16*])c2nsnc12']","['[8*]CCCC', '[7*]C1C(=O)N([10*])C(=O)C(C#N)C1C', '[8*]CCCCCCCCCCCCCCCCC', '[7*]C[8*]', '[8*]CCCCCC', '[14*]c1cc([16*])c([14*])s1', '[9*]n1c2cc([14*])sc2c2sc([14*])cc21']","['[3*]OS[11*]', '[4*]CCCCCCCCCCCC', '[14*]c1cc2c([16*])c3sc(C)cc3c([16*])c2s1', '[14*]c1ccc(C)s1', '[14*]c1ccc([14*])s1', '[16*]c1ccc([16*])c2nsnc12', '.', '[8*]CCCC', '[7*]C1C(=O)N([10*])C(=O)C(C#N)C1C', '[8*]CCCCCCCCCCCCCCCCC', '[7*]C[8*]', '[8*]CCCCCC', '[14*]c1cc([16*])c([14*])s1', '[9*]n1c2cc([14*])sc2c2sc([14*])cc21']","[0, 0, 0, 32, 26, 9, 6, 7, 127, 1, 161, 162, 163, 12, 13, 34, 164]"
P1_BDT-TBT,DCI-2,-5.1,-3.48,-5.24,-4.05,0.5,CF,18.0,DIO,25.0,6.94,6.94,0.8,13.77,63.0,"['[3*]OS[11*]', '[4*]CCCCCCCCCCCC', '[14*]c1cc2c([16*])c3sc(C)cc3c([16*])c2s1', '[14*]c1ccc(C)s1', '[14*]c1ccc([14*])s1', '[16*]c1ccc([16*])c2nsnc12']","['[7*]C(C#N)C#N', '[7*]C1C(=O)c2ccccc2C1[7*]', '[8*]C(CCCCCCC)CCCCCCCCC', '[7*]C[8*]', '[8*]CCCCCC', '[14*]c1cc([16*])c([14*])s1', '[9*]n1c2cc([14*])sc2c2sc([14*])cc21']","['[3*]OS[11*]', '[4*]CCCCCCCCCCCC', '[14*]c1cc2c([16*])c3sc(C)cc3c([16*])c2s1', '[14*]c1ccc(C)s1', '[14*]c1ccc([14*])s1', '[16*]c1ccc([16*])c2nsnc12', '.', '[7*]C(C#N)C#N', '[7*]C1C(=O)c2ccccc2C1[7*]', '[8*]C(CCCCCCC)CCCCCCCCC', '[7*]C[8*]', '[8*]CCCCCC', '[14*]c1cc([16*])c([14*])s1', '[9*]n1c2cc([14*])sc2c2sc([14*])cc21']","[0, 0, 0, 32, 26, 9, 6, 7, 127, 1, 10, 11, 125, 12, 13, 34, 164]"
PBDTTT-C-T,DC-IDT2F,-5.128,-3.268,-5.44,-3.88,2.0,o-DCB,20.0,_,25.0,3.08,3.08,0.96,6.32,50.8,"['[6*]C(=O)CC(CC)CCCC', '[8*]CC(CC)CCCC', '[14*]c1cc2c(C)sc([14*])c2s1', '[14*]c1ccc([14*])s1', '[14*]c1cc2c([16*])c3sc(C)cc3c([16*])c2s1']","['[7*]C(C#N)C#N', '[7*]C1C(=O)c2ccccc2C1[7*]', '[7*]C[8*]', '[8*]CCCCCC', '[14*]c1ccc([14*])o1', '[16*]c1ccc(C2(c3ccc([16*])cc3)c3cc([16*])ccc3-c3cc4c(cc32)-c2ccc([16*])cc2C4(c2ccc([16*])cc2)c2ccc([16*])cc2)cc1']","['[6*]C(=O)CC(CC)CCCC', '[8*]CC(CC)CCCC', '[14*]c1cc2c(C)sc([14*])c2s1', '[14*]c1ccc([14*])s1', '[14*]c1cc2c([16*])c3sc(C)cc3c([16*])c2s1', '.', '[7*]C(C#N)C#N', '[7*]C1C(=O)c2ccccc2C1[7*]', '[7*]C[8*]', '[8*]CCCCCC', '[14*]c1ccc([14*])o1', '[16*]c1ccc(C2(c3ccc([16*])cc3)c3cc([16*])ccc3-c3cc4c(cc32)-c2ccc([16*])cc2C4(c2ccc([16*])cc2)c2ccc([16*])cc2)cc1']","[0, 0, 0, 0, 0, 98, 5, 96, 7, 9, 1, 10, 11, 12, 13, 50, 154]"
PTB7-Th,TIM-IDT,-5.204782608695651,-3.5391891891891896,-5.36,-4.01,1.0,o-DCB,10.0,_,25.0,1.63,1.44,0.6,5.26,45.53,"['[3*]O[3*]', '[4*]CC(CC)CCCC', '[1*]C([6*])=O', '[8*]CC(CC)CCCC', '[14*]c1sc2c([14*])sc(C)c2c1F', '[14*]c1ccc([14*])s1', '[14*]c1cc2c([16*])c3sc(C)cc3c([16*])c2s1']","['[7*]C(C#N)C#N', '[8*]CCCCCC', '[7*]C1C(=O)N(CC(CC)CCCC)c2cc([14*])sc21', '[14*]c1cc2c(s1)-c1cc3c(cc1C2(c1ccc([16*])cc1)c1ccc([16*])cc1)-c1sc([14*])cc1C3(c1ccc([16*])cc1)c1ccc([16*])cc1']","['[3*]O[3*]', '[4*]CC(CC)CCCC', '[1*]C([6*])=O', '[8*]CC(CC)CCCC', '[14*]c1sc2c([14*])sc(C)c2c1F', '[14*]c1ccc([14*])s1', '[14*]c1cc2c([16*])c3sc(C)cc3c([16*])c2s1', '.', '[7*]C(C#N)C#N', '[8*]CCCCCC', '[7*]C1C(=O)N(CC(CC)CCCC)c2cc([14*])sc21', '[14*]c1cc2c(s1)-c1cc3c(cc1C2(c1ccc([16*])cc1)c1ccc([16*])cc1)-c1sc([14*])cc1C3(c1ccc([16*])cc1)c1ccc([16*])cc1']","[0, 0, 0, 0, 0, 2, 3, 4, 5, 35, 7, 9, 1, 10, 13, 166, 38]"
PTB7-Th,COTIC-4F,-5.204782608695651,-3.5391891891891896,-5.26,-4.16,0.667,CB,20.0,CN,25.0,6.4,6.4,0.56,20.3,56.3,"['[3*]O[3*]', '[4*]CC(CC)CCCC', '[1*]C([6*])=O', '[8*]CC(CC)CCCC', '[14*]c1sc2c([14*])sc(C)c2c1F', '[14*]c1ccc([14*])s1', '[14*]c1cc2c([16*])c3sc(C)cc3c([16*])c2s1']","['[4*]CC(CC)CCCC', '[3*]O[3*]', '[7*]C(C#N)C#N', '[7*]C1C(=O)c2ccccc2C1[7*]', '[7*]C[8*]', '[14*]c1cc([16*])c([14*])s1', '[14*]c1cc2c(s1)-c1sc([14*])cc1C2(CC(CC)CCCC)CC(CC)CCCC']","['[3*]O[3*]', '[4*]CC(CC)CCCC', '[1*]C([6*])=O', '[8*]CC(CC)CCCC', '[14*]c1sc2c([14*])sc(C)c2c1F', '[14*]c1ccc([14*])s1', '[14*]c1cc2c([16*])c3sc(C)cc3c([16*])c2s1', '.', '[4*]CC(CC)CCCC', '[3*]O[3*]', '[7*]C(C#N)C#N', '[7*]C1C(=O)c2ccccc2C1[7*]', '[7*]C[8*]', '[14*]c1cc([16*])c([14*])s1', '[14*]c1cc2c(s1)-c1sc([14*])cc1C2(CC(CC)CCCC)CC(CC)CCCC']","[0, 0, 2, 3, 4, 5, 35, 7, 9, 1, 3, 2, 10, 11, 12, 34, 167]"
PTB7-Th,SiOTIC-4F,-5.204782608695651,-3.5391891891891896,-5.28,-4.11,0.667,CF,20.0,CN,25.0,8.6,8.62,0.65,21.6,61.4,"['[3*]O[3*]', '[4*]CC(CC)CCCC', '[1*]C([6*])=O', '[8*]CC(CC)CCCC', '[14*]c1sc2c([14*])sc(C)c2c1F', '[14*]c1ccc([14*])s1', '[14*]c1cc2c([16*])c3sc(C)cc3c([16*])c2s1']","['[4*]CC(CC)CCCC', '[3*]O[3*]', '[7*]C(C#N)C#N', '[7*]C1C(=O)c2cc(F)c(F)cc2C1[7*]', '[7*]C[8*]', '[14*]c1cc([16*])c([14*])s1', '[14*]c1cc2c(s1)-c1sc([14*])cc1[Si]2(CC(CC)CCCC)CC(CC)CCCC']","['[3*]O[3*]', '[4*]CC(CC)CCCC', '[1*]C([6*])=O', '[8*]CC(CC)CCCC', '[14*]c1sc2c([14*])sc(C)c2c1F', '[14*]c1ccc([14*])s1', '[14*]c1cc2c([16*])c3sc(C)cc3c([16*])c2s1', '.', '[4*]CC(CC)CCCC', '[3*]O[3*]', '[7*]C(C#N)C#N', '[7*]C1C(=O)c2cc(F)c(F)cc2C1[7*]', '[7*]C[8*]', '[14*]c1cc([16*])c([14*])s1', '[14*]c1cc2c(s1)-c1sc([14*])cc1[Si]2(CC(CC)CCCC)CC(CC)CCCC']","[0, 0, 2, 3, 4, 5, 35, 7, 9, 1, 3, 2, 10, 42, 12, 34, 168]"
P3HT,BTA100,-5.057777777777777,-2.989444444444445,-4.98,-2.81,1.0,CF,15.0,_,100.0,1.04,1.04,1.34,1.65,47.0,"['[8*]CCCCCC', '[14*]c1sc(C)cc1[16*]', '[14*]c1cc([16*])c(C)s1', '[14*]c1cc([16*])c([14*])s1']","['[3*]OC', '[8*]CC', '[7*]C1SC(=O)N([10*])C1=O', '[8*]CCCCCCCC', '[7*]C[8*]', '[8*]CCCCCC', '[9*]n1nc2c([16*])c([16*])c([16*])c([16*])c2n1', '[14*]c1cc2c(s1)-c1cc3c(cc1C2(c1ccc([16*])cc1)c1ccc([16*])cc1)-c1sc([14*])cc1C3(c1ccc([16*])cc1)c1ccc([16*])cc1']","['[8*]CCCCCC', '[14*]c1sc(C)cc1[16*]', '[14*]c1cc([16*])c(C)s1', '[14*]c1cc([16*])c([14*])s1', '.', '[3*]OC', '[8*]CC', '[7*]C1SC(=O)N([10*])C1=O', '[8*]CCCCCCCC', '[7*]C[8*]', '[8*]CCCCCC', '[9*]n1nc2c([16*])c([16*])c([16*])c([16*])c2n1', '[14*]c1cc2c(s1)-c1cc3c(cc1C2(c1ccc([16*])cc1)c1ccc([16*])cc1)-c1sc([14*])cc1C3(c1ccc([16*])cc1)c1ccc([16*])cc1']","[0, 0, 0, 0, 13, 102, 57, 34, 1, 69, 22, 169, 21, 12, 13, 170, 38]"
P3HT,BTA101,-5.057777777777777,-2.989444444444445,-5.05,-2.99,1.0,CF,15.0,_,120.0,3.55,3.55,1.19,5.33,56.0,"['[8*]CCCCCC', '[14*]c1sc(C)cc1[16*]', '[14*]c1cc([16*])c(C)s1', '[14*]c1cc([16*])c([14*])s1']","['[3*]OC', '[8*]CC', '[7*]C1SC(=S)N([10*])C1=O', '[8*]CCCCCCCC', '[7*]C[8*]', '[8*]CCCCCC', '[9*]n1nc2c([16*])c([16*])c([16*])c([16*])c2n1', '[14*]c1cc2c(s1)-c1cc3c(cc1C2(c1ccc([16*])cc1)c1ccc([16*])cc1)-c1sc([14*])cc1C3(c1ccc([16*])cc1)c1ccc([16*])cc1']","['[8*]CCCCCC', '[14*]c1sc(C)cc1[16*]', '[14*]c1cc([16*])c(C)s1', '[14*]c1cc([16*])c([14*])s1', '.', '[3*]OC', '[8*]CC', '[7*]C1SC(=S)N([10*])C1=O', '[8*]CCCCCCCC', '[7*]C[8*]', '[8*]CCCCCC', '[9*]n1nc2c([16*])c([16*])c([16*])c([16*])c2n1', '[14*]c1cc2c(s1)-c1cc3c(cc1C2(c1ccc([16*])cc1)c1ccc([16*])cc1)-c1sc([14*])cc1C3(c1ccc([16*])cc1)c1ccc([16*])cc1']","[0, 0, 0, 0, 13, 102, 57, 34, 1, 69, 22, 76, 21, 12, 13, 170, 38]"
P3HT,BTA103,-5.057777777777777,-2.989444444444445,-5.21,-3.18,0.5,CF,15.0,_,120.0,5.31,5.31,0.94,8.56,66.0,"['[8*]CCCCCC', '[14*]c1sc(C)cc1[16*]', '[14*]c1cc([16*])c(C)s1', '[14*]c1cc([16*])c([14*])s1']","['[3*]OC', '[8*]CCCCCCCC', '[8*]CC', '[8*]CCCCCC', '[9*]n1nc2c([16*])c([16*])c([16*])c(/C=c3/sc(=C(C#N)C#N)n([9*])c3=O)c2n1', '[14*]c1cc2c(s1)-c1cc3c(cc1C2(c1ccc([16*])cc1)c1ccc([16*])cc1)-c1sc([14*])cc1C3(c1ccc([16*])cc1)c1ccc([16*])cc1']","['[8*]CCCCCC', '[14*]c1sc(C)cc1[16*]', '[14*]c1cc([16*])c(C)s1', '[14*]c1cc([16*])c([14*])s1', '.', '[3*]OC', '[8*]CCCCCCCC', '[8*]CC', '[8*]CCCCCC', '[9*]n1nc2c([16*])c([16*])c([16*])c(/C=c3/sc(=C(C#N)C#N)n([9*])c3=O)c2n1', '[14*]c1cc2c(s1)-c1cc3c(cc1C2(c1ccc([16*])cc1)c1ccc([16*])cc1)-c1sc([14*])cc1C3(c1ccc([16*])cc1)c1ccc([16*])cc1']","[0, 0, 0, 0, 0, 0, 13, 102, 57, 34, 1, 69, 21, 22, 13, 171, 38]"
PTB7-Th,6TIC,-5.204782608695651,-3.5391891891891896,-5.33,-3.885,0.667,CB,25.0,DIO,150.0,11.07,11.06,0.831,20.11,66.16,"['[3*]O[3*]', '[4*]CC(CC)CCCC', '[1*]C([6*])=O', '[8*]CC(CC)CCCC', '[14*]c1sc2c([14*])sc(C)c2c1F', '[14*]c1ccc([14*])s1', '[14*]c1cc2c([16*])c3sc(C)cc3c([16*])c2s1']","['[7*]C(C#N)C#N', '[7*]C1C(=O)c2ccccc2C1[7*]', '[7*]C[8*]', '[8*]CCCCCC', '[14*]c1cc2sc3c(c2s1)C(c1ccc([16*])cc1)(c1ccc([16*])cc1)c1c-3sc2c3c(sc12)-c1sc2cc([14*])sc2c1C3(c1ccc([16*])cc1)c1ccc([16*])cc1']","['[3*]O[3*]', '[4*]CC(CC)CCCC', '[1*]C([6*])=O', '[8*]CC(CC)CCCC', '[14*]c1sc2c([14*])sc(C)c2c1F', '[14*]c1ccc([14*])s1', '[14*]c1cc2c([16*])c3sc(C)cc3c([16*])c2s1', '.', '[7*]C(C#N)C#N', '[7*]C1C(=O)c2ccccc2C1[7*]', '[7*]C[8*]', '[8*]CCCCCC', '[14*]c1cc2sc3c(c2s1)C(c1ccc([16*])cc1)(c1ccc([16*])cc1)c1c-3sc2c3c(sc12)-c1sc2cc([14*])sc2c1C3(c1ccc([16*])cc1)c1ccc([16*])cc1']","[0, 0, 0, 0, 2, 3, 4, 5, 35, 7, 9, 1, 10, 11, 12, 13, 14]"
PTB7-Th,COi8DFIC,-5.204782608695651,-3.5391891891891896,-5.5,-3.88,1.0,CB,18.0,DIO,25.0,12.16,12.11,0.68,26.12,68.2,"['[3*]O[3*]', '[4*]CC(CC)CCCC', '[1*]C([6*])=O', '[8*]CC(CC)CCCC', '[14*]c1sc2c([14*])sc(C)c2c1F', '[14*]c1ccc([14*])s1', '[14*]c1cc2c([16*])c3sc(C)cc3c([16*])c2s1']","['[7*]C(C#N)C#N', '[7*]C1C(=O)c2cc(F)c(F)cc2C1[7*]', '[7*]C[8*]', '[8*]CCCCCC', '[14*]c1cc2sc3c(c2s1)C(c1ccc([16*])cc1)(c1ccc([16*])cc1)Oc1c-3sc2c3c(sc12)-c1sc2cc([14*])sc2c1C(c1ccc([16*])cc1)(c1ccc([16*])cc1)O3']","['[3*]O[3*]', '[4*]CC(CC)CCCC', '[1*]C([6*])=O', '[8*]CC(CC)CCCC', '[14*]c1sc2c([14*])sc(C)c2c1F', '[14*]c1ccc([14*])s1', '[14*]c1cc2c([16*])c3sc(C)cc3c([16*])c2s1', '.', '[7*]C(C#N)C#N', '[7*]C1C(=O)c2cc(F)c(F)cc2C1[7*]', '[7*]C[8*]', '[8*]CCCCCC', '[14*]c1cc2sc3c(c2s1)C(c1ccc([16*])cc1)(c1ccc([16*])cc1)Oc1c-3sc2c3c(sc12)-c1sc2cc([14*])sc2c1C(c1ccc([16*])cc1)(c1ccc([16*])cc1)O3']","[0, 0, 0, 0, 2, 3, 4, 5, 35, 7, 9, 1, 10, 42, 12, 13, 172]"