Donor,Acceptor,HOMO_D_eV,LUMO_D_eV,HOMO_A_eV,LUMO_A_eV,D_A_ratio_m_m,solvent,total_solids_conc_mg_mL,solvent_additive,annealing_temperature,PCE_percent,calc_PCE_percent,Voc_V,FF_percent,Donor_BRICS,Acceptor_BRICS,DA_pair_BRICS,DA_tokenized_BRICS
PBFZ-OP,ITIC,-5.33,-3.01,-5.574146341463415,-3.915,1.0,CF,16.0,_,160.0,10.5,10.52,0.91,61.8,"[<rdkit.Chem.rdchem.Mol object at 0x7f5838e7fa70>, <rdkit.Chem.rdchem.Mol object at 0x7f5838e7f060>, <rdkit.Chem.rdchem.Mol object at 0x7f5838e7e730>, <rdkit.Chem.rdchem.Mol object at 0x7f5838e746d0>, <rdkit.Chem.rdchem.Mol object at 0x7f5838e7e9d0>, <rdkit.Chem.rdchem.Mol object at 0x7f5838e749e0>, <rdkit.Chem.rdchem.Mol object at 0x7f5838e74e40>, <rdkit.Chem.rdchem.Mol object at 0x7f5838e74350>]","[<rdkit.Chem.rdchem.Mol object at 0x7f5838e7fbc0>, <rdkit.Chem.rdchem.Mol object at 0x7f5838e7fc30>, <rdkit.Chem.rdchem.Mol object at 0x7f5838e7f3e0>, <rdkit.Chem.rdchem.Mol object at 0x7f5838e7f680>, <rdkit.Chem.rdchem.Mol object at 0x7f5838e745f0>]","[<rdkit.Chem.rdchem.Mol object at 0x7f5838e7fa70>, <rdkit.Chem.rdchem.Mol object at 0x7f5838e7f060>, <rdkit.Chem.rdchem.Mol object at 0x7f5838e7e730>, <rdkit.Chem.rdchem.Mol object at 0x7f5838e746d0>, <rdkit.Chem.rdchem.Mol object at 0x7f5838e7e9d0>, <rdkit.Chem.rdchem.Mol object at 0x7f5838e749e0>, <rdkit.Chem.rdchem.Mol object at 0x7f5838e74e40>, <rdkit.Chem.rdchem.Mol object at 0x7f5838e74350>, '.', <rdkit.Chem.rdchem.Mol object at 0x7f5838e7fbc0>, <rdkit.Chem.rdchem.Mol object at 0x7f5838e7fc30>, <rdkit.Chem.rdchem.Mol object at 0x7f5838e7f3e0>, <rdkit.Chem.rdchem.Mol object at 0x7f5838e7f680>, <rdkit.Chem.rdchem.Mol object at 0x7f5838e745f0>]","[0, 0, 0, 685, 686, 687, 688, 689, 690, 691, 692, 1, 693, 694, 695, 696, 697]"
PSBZ,ITIC,-5.37,-3.47,-5.574146341463415,-3.915,1.0,CB,20.0,_,140.0,10.5,10.48,0.89,62.0,"[<rdkit.Chem.rdchem.Mol object at 0x7f5838e7fe60>, <rdkit.Chem.rdchem.Mol object at 0x7f5838e7fca0>, <rdkit.Chem.rdchem.Mol object at 0x7f5838e7eb20>, <rdkit.Chem.rdchem.Mol object at 0x7f5838e74900>, <rdkit.Chem.rdchem.Mol object at 0x7f5838e74c80>, <rdkit.Chem.rdchem.Mol object at 0x7f5838e75150>, <rdkit.Chem.rdchem.Mol object at 0x7f5838e74820>]","[<rdkit.Chem.rdchem.Mol object at 0x7f5838e7f0d0>, <rdkit.Chem.rdchem.Mol object at 0x7f5838e754d0>, <rdkit.Chem.rdchem.Mol object at 0x7f5838e7fd80>, <rdkit.Chem.rdchem.Mol object at 0x7f5838e7f840>, <rdkit.Chem.rdchem.Mol object at 0x7f5838e74d60>]","[<rdkit.Chem.rdchem.Mol object at 0x7f5838e7fe60>, <rdkit.Chem.rdchem.Mol object at 0x7f5838e7fca0>, <rdkit.Chem.rdchem.Mol object at 0x7f5838e7eb20>, <rdkit.Chem.rdchem.Mol object at 0x7f5838e74900>, <rdkit.Chem.rdchem.Mol object at 0x7f5838e74c80>, <rdkit.Chem.rdchem.Mol object at 0x7f5838e75150>, <rdkit.Chem.rdchem.Mol object at 0x7f5838e74820>, '.', <rdkit.Chem.rdchem.Mol object at 0x7f5838e7f0d0>, <rdkit.Chem.rdchem.Mol object at 0x7f5838e754d0>, <rdkit.Chem.rdchem.Mol object at 0x7f5838e7fd80>, <rdkit.Chem.rdchem.Mol object at 0x7f5838e7f840>, <rdkit.Chem.rdchem.Mol object at 0x7f5838e74d60>]","[0, 0, 0, 0, 698, 699, 700, 701, 702, 703, 704, 1, 705, 706, 707, 708, 709]"
J71,ITIC1,-5.353333333333333,-3.4318181818181825,-5.48,-3.85,1.0,CF,14.0,_,100.0,8.47,8.41,0.92,61.2,"[<rdkit.Chem.rdchem.Mol object at 0x7f5838e7f990>, <rdkit.Chem.rdchem.Mol object at 0x7f5838e7eb90>, <rdkit.Chem.rdchem.Mol object at 0x7f5838e74660>, <rdkit.Chem.rdchem.Mol object at 0x7f5838e7f760>, <rdkit.Chem.rdchem.Mol object at 0x7f5838e74040>, <rdkit.Chem.rdchem.Mol object at 0x7f5838e742e0>]","[<rdkit.Chem.rdchem.Mol object at 0x7f5838e7ff40>, <rdkit.Chem.rdchem.Mol object at 0x7f5838e740b0>, <rdkit.Chem.rdchem.Mol object at 0x7f5838e7fdf0>, <rdkit.Chem.rdchem.Mol object at 0x7f5838e74cf0>, <rdkit.Chem.rdchem.Mol object at 0x7f5838e750e0>]","[<rdkit.Chem.rdchem.Mol object at 0x7f5838e7f990>, <rdkit.Chem.rdchem.Mol object at 0x7f5838e7eb90>, <rdkit.Chem.rdchem.Mol object at 0x7f5838e74660>, <rdkit.Chem.rdchem.Mol object at 0x7f5838e7f760>, <rdkit.Chem.rdchem.Mol object at 0x7f5838e74040>, <rdkit.Chem.rdchem.Mol object at 0x7f5838e742e0>, '.', <rdkit.Chem.rdchem.Mol object at 0x7f5838e7ff40>, <rdkit.Chem.rdchem.Mol object at 0x7f5838e740b0>, <rdkit.Chem.rdchem.Mol object at 0x7f5838e7fdf0>, <rdkit.Chem.rdchem.Mol object at 0x7f5838e74cf0>, <rdkit.Chem.rdchem.Mol object at 0x7f5838e750e0>]","[0, 0, 0, 0, 0, 710, 711, 712, 713, 714, 715, 1, 716, 717, 718, 719, 720]"
J71,ITIC5,-5.353333333333333,-3.4318181818181825,-5.48,-3.95,1.0,CF,14.0,_,100.0,12.2,12.23,0.892,74.7,"[<rdkit.Chem.rdchem.Mol object at 0x7f5838e7dd20>, <rdkit.Chem.rdchem.Mol object at 0x7f5838e75cb0>, <rdkit.Chem.rdchem.Mol object at 0x7f5838e752a0>, <rdkit.Chem.rdchem.Mol object at 0x7f5838e74f20>, <rdkit.Chem.rdchem.Mol object at 0x7f5838e74580>, <rdkit.Chem.rdchem.Mol object at 0x7f5838e74c10>]","[<rdkit.Chem.rdchem.Mol object at 0x7f5838e74740>, <rdkit.Chem.rdchem.Mol object at 0x7f5838e76260>, <rdkit.Chem.rdchem.Mol object at 0x7f5838e747b0>, <rdkit.Chem.rdchem.Mol object at 0x7f5838e74200>, <rdkit.Chem.rdchem.Mol object at 0x7f5838e75c40>]","[<rdkit.Chem.rdchem.Mol object at 0x7f5838e7dd20>, <rdkit.Chem.rdchem.Mol object at 0x7f5838e75cb0>, <rdkit.Chem.rdchem.Mol object at 0x7f5838e752a0>, <rdkit.Chem.rdchem.Mol object at 0x7f5838e74f20>, <rdkit.Chem.rdchem.Mol object at 0x7f5838e74580>, <rdkit.Chem.rdchem.Mol object at 0x7f5838e74c10>, '.', <rdkit.Chem.rdchem.Mol object at 0x7f5838e74740>, <rdkit.Chem.rdchem.Mol object at 0x7f5838e76260>, <rdkit.Chem.rdchem.Mol object at 0x7f5838e747b0>, <rdkit.Chem.rdchem.Mol object at 0x7f5838e74200>, <rdkit.Chem.rdchem.Mol object at 0x7f5838e75c40>]","[0, 0, 0, 0, 0, 721, 722, 723, 724, 725, 726, 1, 727, 728, 729, 730, 731]"
PBDT-ODZ,ITIC-Th,-5.68,-2.89,-5.673333333333334,-3.908888888888889,1.0,CB,20.0,_,25.0,10.12,10.12,1.08,60.4,"[<rdkit.Chem.rdchem.Mol object at 0x7f5838e7eab0>, <rdkit.Chem.rdchem.Mol object at 0x7f5838e753f0>, <rdkit.Chem.rdchem.Mol object at 0x7f5838e7f450>, <rdkit.Chem.rdchem.Mol object at 0x7f5838e74120>, <rdkit.Chem.rdchem.Mol object at 0x7f5838e75540>, <rdkit.Chem.rdchem.Mol object at 0x7f5838e74a50>, <rdkit.Chem.rdchem.Mol object at 0x7f5838e75e70>]","[<rdkit.Chem.rdchem.Mol object at 0x7f5838e75930>, <rdkit.Chem.rdchem.Mol object at 0x7f5838e74b30>, <rdkit.Chem.rdchem.Mol object at 0x7f5838e76ea0>, <rdkit.Chem.rdchem.Mol object at 0x7f5838e75460>, <rdkit.Chem.rdchem.Mol object at 0x7f5838e74970>]","[<rdkit.Chem.rdchem.Mol object at 0x7f5838e7eab0>, <rdkit.Chem.rdchem.Mol object at 0x7f5838e753f0>, <rdkit.Chem.rdchem.Mol object at 0x7f5838e7f450>, <rdkit.Chem.rdchem.Mol object at 0x7f5838e74120>, <rdkit.Chem.rdchem.Mol object at 0x7f5838e75540>, <rdkit.Chem.rdchem.Mol object at 0x7f5838e74a50>, <rdkit.Chem.rdchem.Mol object at 0x7f5838e75e70>, '.', <rdkit.Chem.rdchem.Mol object at 0x7f5838e75930>, <rdkit.Chem.rdchem.Mol object at 0x7f5838e74b30>, <rdkit.Chem.rdchem.Mol object at 0x7f5838e76ea0>, <rdkit.Chem.rdchem.Mol object at 0x7f5838e75460>, <rdkit.Chem.rdchem.Mol object at 0x7f5838e74970>]","[0, 0, 0, 0, 732, 733, 734, 735, 736, 737, 738, 1, 739, 740, 741, 742, 743]"
FTAZ,ITIC-Th3,-5.43,-3.3200000000000003,-5.67,-3.73,0.667,CF,12.5,DIO,25.0,10.7,10.74,0.962,68.33,"[<rdkit.Chem.rdchem.Mol object at 0x7f5838e76b20>, <rdkit.Chem.rdchem.Mol object at 0x7f5838e76420>, <rdkit.Chem.rdchem.Mol object at 0x7f5838e76d50>, <rdkit.Chem.rdchem.Mol object at 0x7f5838e76ce0>, <rdkit.Chem.rdchem.Mol object at 0x7f5838e74eb0>, <rdkit.Chem.rdchem.Mol object at 0x7f5838e76340>]","[<rdkit.Chem.rdchem.Mol object at 0x7f5838e75af0>, <rdkit.Chem.rdchem.Mol object at 0x7f5838e74270>, <rdkit.Chem.rdchem.Mol object at 0x7f5838e75770>, <rdkit.Chem.rdchem.Mol object at 0x7f5838e75000>, <rdkit.Chem.rdchem.Mol object at 0x7f5838e76b90>, <rdkit.Chem.rdchem.Mol object at 0x7f5838e76f10>]","[<rdkit.Chem.rdchem.Mol object at 0x7f5838e76b20>, <rdkit.Chem.rdchem.Mol object at 0x7f5838e76420>, <rdkit.Chem.rdchem.Mol object at 0x7f5838e76d50>, <rdkit.Chem.rdchem.Mol object at 0x7f5838e76ce0>, <rdkit.Chem.rdchem.Mol object at 0x7f5838e74eb0>, <rdkit.Chem.rdchem.Mol object at 0x7f5838e76340>, '.', <rdkit.Chem.rdchem.Mol object at 0x7f5838e75af0>, <rdkit.Chem.rdchem.Mol object at 0x7f5838e74270>, <rdkit.Chem.rdchem.Mol object at 0x7f5838e75770>, <rdkit.Chem.rdchem.Mol object at 0x7f5838e75000>, <rdkit.Chem.rdchem.Mol object at 0x7f5838e76b90>, <rdkit.Chem.rdchem.Mol object at 0x7f5838e76f10>]","[0, 0, 0, 0, 777, 778, 779, 780, 781, 782, 1, 783, 784, 785, 786, 787, 788]"
J52,IT-M,-5.218571428571429,-3.341428571428572,-5.513571428571429,-3.808,1.0,CB,12.0,DIO,150.0,9.4,9.38,0.843,65.1,"[<rdkit.Chem.rdchem.Mol object at 0x7f5838e771b0>, <rdkit.Chem.rdchem.Mol object at 0x7f5838e761f0>, <rdkit.Chem.rdchem.Mol object at 0x7f5838e751c0>, <rdkit.Chem.rdchem.Mol object at 0x7f5838e75850>, <rdkit.Chem.rdchem.Mol object at 0x7f5838e75d20>, <rdkit.Chem.rdchem.Mol object at 0x7f5838e77370>]","[<rdkit.Chem.rdchem.Mol object at 0x7f5838e77610>, <rdkit.Chem.rdchem.Mol object at 0x7f5838e744a0>, <rdkit.Chem.rdchem.Mol object at 0x7f5838e75700>, <rdkit.Chem.rdchem.Mol object at 0x7f5838e76110>, <rdkit.Chem.rdchem.Mol object at 0x7f5838e77290>]","[<rdkit.Chem.rdchem.Mol object at 0x7f5838e771b0>, <rdkit.Chem.rdchem.Mol object at 0x7f5838e761f0>, <rdkit.Chem.rdchem.Mol object at 0x7f5838e751c0>, <rdkit.Chem.rdchem.Mol object at 0x7f5838e75850>, <rdkit.Chem.rdchem.Mol object at 0x7f5838e75d20>, <rdkit.Chem.rdchem.Mol object at 0x7f5838e77370>, '.', <rdkit.Chem.rdchem.Mol object at 0x7f5838e77610>, <rdkit.Chem.rdchem.Mol object at 0x7f5838e744a0>, <rdkit.Chem.rdchem.Mol object at 0x7f5838e75700>, <rdkit.Chem.rdchem.Mol object at 0x7f5838e76110>, <rdkit.Chem.rdchem.Mol object at 0x7f5838e77290>]","[0, 0, 0, 0, 0, 789, 790, 791, 792, 793, 794, 1, 795, 796, 797, 798, 799]"
J52,IEICO,-5.218571428571429,-3.341428571428572,-5.32,-3.95,1.0,CB,12.0,DIO,150.0,6.5,6.53,0.848,51.0,"[<rdkit.Chem.rdchem.Mol object at 0x7f5838e76c00>, <rdkit.Chem.rdchem.Mol object at 0x7f5838e775a0>, <rdkit.Chem.rdchem.Mol object at 0x7f5838e76960>, <rdkit.Chem.rdchem.Mol object at 0x7f5838e760a0>, <rdkit.Chem.rdchem.Mol object at 0x7f5838e76c70>, <rdkit.Chem.rdchem.Mol object at 0x7f5838e769d0>]","[<rdkit.Chem.rdchem.Mol object at 0x7f5838e77680>, <rdkit.Chem.rdchem.Mol object at 0x7f5838e767a0>, <rdkit.Chem.rdchem.Mol object at 0x7f5838e77df0>, <rdkit.Chem.rdchem.Mol object at 0x7f5838e77220>, <rdkit.Chem.rdchem.Mol object at 0x7f5838e74f90>, <rdkit.Chem.rdchem.Mol object at 0x7f5838e76dc0>, <rdkit.Chem.rdchem.Mol object at 0x7f5838f2c5f0>, <rdkit.Chem.rdchem.Mol object at 0x7f5838f2d3f0>]","[<rdkit.Chem.rdchem.Mol object at 0x7f5838e76c00>, <rdkit.Chem.rdchem.Mol object at 0x7f5838e775a0>, <rdkit.Chem.rdchem.Mol object at 0x7f5838e76960>, <rdkit.Chem.rdchem.Mol object at 0x7f5838e760a0>, <rdkit.Chem.rdchem.Mol object at 0x7f5838e76c70>, <rdkit.Chem.rdchem.Mol object at 0x7f5838e769d0>, '.', <rdkit.Chem.rdchem.Mol object at 0x7f5838e77680>, <rdkit.Chem.rdchem.Mol object at 0x7f5838e767a0>, <rdkit.Chem.rdchem.Mol object at 0x7f5838e77df0>, <rdkit.Chem.rdchem.Mol object at 0x7f5838e77220>, <rdkit.Chem.rdchem.Mol object at 0x7f5838e74f90>, <rdkit.Chem.rdchem.Mol object at 0x7f5838e76dc0>, <rdkit.Chem.rdchem.Mol object at 0x7f5838f2c5f0>, <rdkit.Chem.rdchem.Mol object at 0x7f5838f2d3f0>]","[0, 0, 800, 801, 802, 803, 804, 805, 1, 806, 807, 808, 809, 810, 811, 812, 813]"
J71,MeIC2,-5.353333333333333,-3.4318181818181825,-5.56,-3.97,1.0,CF,18.0,_,150.0,10.2,10.38,0.885,69.4,"[<rdkit.Chem.rdchem.Mol object at 0x7f5838e75310>, <rdkit.Chem.rdchem.Mol object at 0x7f5838f2cc10>, <rdkit.Chem.rdchem.Mol object at 0x7f5838f2c7b0>, <rdkit.Chem.rdchem.Mol object at 0x7f5838e770d0>, <rdkit.Chem.rdchem.Mol object at 0x7f5838f2d460>, <rdkit.Chem.rdchem.Mol object at 0x7f5838f2c3c0>]","[<rdkit.Chem.rdchem.Mol object at 0x7f5838f2c120>, <rdkit.Chem.rdchem.Mol object at 0x7f5838f2d230>, <rdkit.Chem.rdchem.Mol object at 0x7f5838e75b60>, <rdkit.Chem.rdchem.Mol object at 0x7f5838f2d000>, <rdkit.Chem.rdchem.Mol object at 0x7f5838f2c890>]","[<rdkit.Chem.rdchem.Mol object at 0x7f5838e75310>, <rdkit.Chem.rdchem.Mol object at 0x7f5838f2cc10>, <rdkit.Chem.rdchem.Mol object at 0x7f5838f2c7b0>, <rdkit.Chem.rdchem.Mol object at 0x7f5838e770d0>, <rdkit.Chem.rdchem.Mol object at 0x7f5838f2d460>, <rdkit.Chem.rdchem.Mol object at 0x7f5838f2c3c0>, '.', <rdkit.Chem.rdchem.Mol object at 0x7f5838f2c120>, <rdkit.Chem.rdchem.Mol object at 0x7f5838f2d230>, <rdkit.Chem.rdchem.Mol object at 0x7f5838e75b60>, <rdkit.Chem.rdchem.Mol object at 0x7f5838f2d000>, <rdkit.Chem.rdchem.Mol object at 0x7f5838f2c890>]","[0, 0, 0, 0, 0, 849, 850, 851, 852, 853, 854, 1, 855, 856, 857, 858, 859]"
J70,m-ITIC,-5.37,-2.91,-5.526666666666667,-3.8515384615384622,0.667,CF,20.0,_,150.0,11.62,11.62,0.92,69.82,"[<rdkit.Chem.rdchem.Mol object at 0x7f5838e77a70>, <rdkit.Chem.rdchem.Mol object at 0x7f5838f2cc80>, <rdkit.Chem.rdchem.Mol object at 0x7f5838f2c9e0>, <rdkit.Chem.rdchem.Mol object at 0x7f5838f2d620>, <rdkit.Chem.rdchem.Mol object at 0x7f5838f2c040>, <rdkit.Chem.rdchem.Mol object at 0x7f5838f2d7e0>]","[<rdkit.Chem.rdchem.Mol object at 0x7f5838f2c2e0>, <rdkit.Chem.rdchem.Mol object at 0x7f5838f2cb30>, <rdkit.Chem.rdchem.Mol object at 0x7f5838f2c970>, <rdkit.Chem.rdchem.Mol object at 0x7f5838f2ccf0>, <rdkit.Chem.rdchem.Mol object at 0x7f5838f2c190>]","[<rdkit.Chem.rdchem.Mol object at 0x7f5838e77a70>, <rdkit.Chem.rdchem.Mol object at 0x7f5838f2cc80>, <rdkit.Chem.rdchem.Mol object at 0x7f5838f2c9e0>, <rdkit.Chem.rdchem.Mol object at 0x7f5838f2d620>, <rdkit.Chem.rdchem.Mol object at 0x7f5838f2c040>, <rdkit.Chem.rdchem.Mol object at 0x7f5838f2d7e0>, '.', <rdkit.Chem.rdchem.Mol object at 0x7f5838f2c2e0>, <rdkit.Chem.rdchem.Mol object at 0x7f5838f2cb30>, <rdkit.Chem.rdchem.Mol object at 0x7f5838f2c970>, <rdkit.Chem.rdchem.Mol object at 0x7f5838f2ccf0>, <rdkit.Chem.rdchem.Mol object at 0x7f5838f2c190>]","[0, 0, 0, 0, 0, 860, 861, 862, 863, 864, 865, 1, 866, 867, 868, 869, 870]"
J71,m-ITIC,-5.353333333333333,-3.4318181818181825,-5.526666666666667,-3.8515384615384622,0.667,CF,20.0,_,150.0,12.05,12.05,0.944,70.59,"[<rdkit.Chem.rdchem.Mol object at 0x7f5838e765e0>, <rdkit.Chem.rdchem.Mol object at 0x7f5838f2d4d0>, <rdkit.Chem.rdchem.Mol object at 0x7f5838f2d2a0>, <rdkit.Chem.rdchem.Mol object at 0x7f5838f2da80>, <rdkit.Chem.rdchem.Mol object at 0x7f5838f2ce40>, <rdkit.Chem.rdchem.Mol object at 0x7f5838f2dcb0>]","[<rdkit.Chem.rdchem.Mol object at 0x7f5838f2db60>, <rdkit.Chem.rdchem.Mol object at 0x7f5838f2cdd0>, <rdkit.Chem.rdchem.Mol object at 0x7f5838f2daf0>, <rdkit.Chem.rdchem.Mol object at 0x7f5838f2d700>, <rdkit.Chem.rdchem.Mol object at 0x7f5838f2cba0>]","[<rdkit.Chem.rdchem.Mol object at 0x7f5838e765e0>, <rdkit.Chem.rdchem.Mol object at 0x7f5838f2d4d0>, <rdkit.Chem.rdchem.Mol object at 0x7f5838f2d2a0>, <rdkit.Chem.rdchem.Mol object at 0x7f5838f2da80>, <rdkit.Chem.rdchem.Mol object at 0x7f5838f2ce40>, <rdkit.Chem.rdchem.Mol object at 0x7f5838f2dcb0>, '.', <rdkit.Chem.rdchem.Mol object at 0x7f5838f2db60>, <rdkit.Chem.rdchem.Mol object at 0x7f5838f2cdd0>, <rdkit.Chem.rdchem.Mol object at 0x7f5838f2daf0>, <rdkit.Chem.rdchem.Mol object at 0x7f5838f2d700>, <rdkit.Chem.rdchem.Mol object at 0x7f5838f2cba0>]","[0, 0, 0, 0, 0, 871, 872, 873, 874, 875, 876, 1, 877, 878, 879, 880, 881]"
J72,m-ITIC,-5.42,-3.29,-5.526666666666667,-3.8515384615384622,0.667,CF,20.0,_,150.0,10.23,10.23,0.962,65.03,"[<rdkit.Chem.rdchem.Mol object at 0x7f5838e77b50>, <rdkit.Chem.rdchem.Mol object at 0x7f5838f2c6d0>, <rdkit.Chem.rdchem.Mol object at 0x7f5838f2d770>, <rdkit.Chem.rdchem.Mol object at 0x7f5838f2dd90>, <rdkit.Chem.rdchem.Mol object at 0x7f5838f2df50>, <rdkit.Chem.rdchem.Mol object at 0x7f5838f2d9a0>]","[<rdkit.Chem.rdchem.Mol object at 0x7f5838f2cd60>, <rdkit.Chem.rdchem.Mol object at 0x7f5838f2d150>, <rdkit.Chem.rdchem.Mol object at 0x7f5838f2d540>, <rdkit.Chem.rdchem.Mol object at 0x7f5838f2dc40>, <rdkit.Chem.rdchem.Mol object at 0x7f5838f2d930>]","[<rdkit.Chem.rdchem.Mol object at 0x7f5838e77b50>, <rdkit.Chem.rdchem.Mol object at 0x7f5838f2c6d0>, <rdkit.Chem.rdchem.Mol object at 0x7f5838f2d770>, <rdkit.Chem.rdchem.Mol object at 0x7f5838f2dd90>, <rdkit.Chem.rdchem.Mol object at 0x7f5838f2df50>, <rdkit.Chem.rdchem.Mol object at 0x7f5838f2d9a0>, '.', <rdkit.Chem.rdchem.Mol object at 0x7f5838f2cd60>, <rdkit.Chem.rdchem.Mol object at 0x7f5838f2d150>, <rdkit.Chem.rdchem.Mol object at 0x7f5838f2d540>, <rdkit.Chem.rdchem.Mol object at 0x7f5838f2dc40>, <rdkit.Chem.rdchem.Mol object at 0x7f5838f2d930>]","[0, 0, 0, 0, 0, 882, 883, 884, 885, 886, 887, 1, 888, 889, 890, 891, 892]"
J74,m-ITIC,-5.56,-3.06,-5.526666666666667,-3.8515384615384622,0.667,CF,20.0,_,150.0,9.63,9.62,0.99,61.18,"[<rdkit.Chem.rdchem.Mol object at 0x7f5838f2e810>, <rdkit.Chem.rdchem.Mol object at 0x7f5838f2e260>, <rdkit.Chem.rdchem.Mol object at 0x7f5838f2e650>, <rdkit.Chem.rdchem.Mol object at 0x7f5838f2e0a0>, <rdkit.Chem.rdchem.Mol object at 0x7f5838f2c510>, <rdkit.Chem.rdchem.Mol object at 0x7f5838f2eb20>]","[<rdkit.Chem.rdchem.Mol object at 0x7f5838f2e3b0>, <rdkit.Chem.rdchem.Mol object at 0x7f5838f2de70>, <rdkit.Chem.rdchem.Mol object at 0x7f5838f2dbd0>, <rdkit.Chem.rdchem.Mol object at 0x7f5838f2e340>, <rdkit.Chem.rdchem.Mol object at 0x7f5838f2e5e0>]","[<rdkit.Chem.rdchem.Mol object at 0x7f5838f2e810>, <rdkit.Chem.rdchem.Mol object at 0x7f5838f2e260>, <rdkit.Chem.rdchem.Mol object at 0x7f5838f2e650>, <rdkit.Chem.rdchem.Mol object at 0x7f5838f2e0a0>, <rdkit.Chem.rdchem.Mol object at 0x7f5838f2c510>, <rdkit.Chem.rdchem.Mol object at 0x7f5838f2eb20>, '.', <rdkit.Chem.rdchem.Mol object at 0x7f5838f2e3b0>, <rdkit.Chem.rdchem.Mol object at 0x7f5838f2de70>, <rdkit.Chem.rdchem.Mol object at 0x7f5838f2dbd0>, <rdkit.Chem.rdchem.Mol object at 0x7f5838f2e340>, <rdkit.Chem.rdchem.Mol object at 0x7f5838f2e5e0>]","[0, 0, 0, 0, 0, 904, 905, 906, 907, 908, 909, 1, 910, 911, 912, 913, 914]"
J91,m-ITIC,-5.5,-3.02,-5.526666666666667,-3.8515384615384622,0.667,CF,12.0,_,150.0,11.63,11.63,0.984,65.54,"[<rdkit.Chem.rdchem.Mol object at 0x7f5838f2ece0>, <rdkit.Chem.rdchem.Mol object at 0x7f5838f2edc0>, <rdkit.Chem.rdchem.Mol object at 0x7f5838f2eab0>, <rdkit.Chem.rdchem.Mol object at 0x7f5838f2e7a0>, <rdkit.Chem.rdchem.Mol object at 0x7f5838f2cf20>, <rdkit.Chem.rdchem.Mol object at 0x7f5838f2e180>, <rdkit.Chem.rdchem.Mol object at 0x7f5838f2f220>]","[<rdkit.Chem.rdchem.Mol object at 0x7f5838f2f290>, <rdkit.Chem.rdchem.Mol object at 0x7f5838f2e500>, <rdkit.Chem.rdchem.Mol object at 0x7f5838f2e490>, <rdkit.Chem.rdchem.Mol object at 0x7f5838f2ca50>, <rdkit.Chem.rdchem.Mol object at 0x7f5838f2e030>]","[<rdkit.Chem.rdchem.Mol object at 0x7f5838f2ece0>, <rdkit.Chem.rdchem.Mol object at 0x7f5838f2edc0>, <rdkit.Chem.rdchem.Mol object at 0x7f5838f2eab0>, <rdkit.Chem.rdchem.Mol object at 0x7f5838f2e7a0>, <rdkit.Chem.rdchem.Mol object at 0x7f5838f2cf20>, <rdkit.Chem.rdchem.Mol object at 0x7f5838f2e180>, <rdkit.Chem.rdchem.Mol object at 0x7f5838f2f220>, '.', <rdkit.Chem.rdchem.Mol object at 0x7f5838f2f290>, <rdkit.Chem.rdchem.Mol object at 0x7f5838f2e500>, <rdkit.Chem.rdchem.Mol object at 0x7f5838f2e490>, <rdkit.Chem.rdchem.Mol object at 0x7f5838f2ca50>, <rdkit.Chem.rdchem.Mol object at 0x7f5838f2e030>]","[0, 0, 0, 0, 915, 916, 917, 918, 919, 920, 921, 1, 922, 923, 924, 925, 926]"