Donor,Acceptor,HOMO_D_eV,LUMO_D_eV,HOMO_A_eV,LUMO_A_eV,D_A_ratio_m_m,solvent,total_solids_conc_mg_mL,solvent_additive,annealing_temperature,PCE_percent,calc_PCE_percent,Voc_V,FF_percent,Donor_BRICS,Acceptor_BRICS,DA_pair_BRICS,DA_tokenized_BRICS
PTB7-Th,COTIC-4F,-5.204782608695651,-3.5391891891891896,-5.26,-4.16,0.667,CB,20.0,CN,25.0,6.4,6.4,0.56,56.3,"[<rdkit.Chem.rdchem.Mol object at 0x7f5838db58c0>, <rdkit.Chem.rdchem.Mol object at 0x7f5838db62d0>, <rdkit.Chem.rdchem.Mol object at 0x7f5838db5fc0>, <rdkit.Chem.rdchem.Mol object at 0x7f5838db5ee0>, <rdkit.Chem.rdchem.Mol object at 0x7f5838db4eb0>, <rdkit.Chem.rdchem.Mol object at 0x7f5838db4dd0>, <rdkit.Chem.rdchem.Mol object at 0x7f5838db6ff0>]","[<rdkit.Chem.rdchem.Mol object at 0x7f5838db47b0>, <rdkit.Chem.rdchem.Mol object at 0x7f5838db66c0>, <rdkit.Chem.rdchem.Mol object at 0x7f5838db4190>, <rdkit.Chem.rdchem.Mol object at 0x7f5838db4510>, <rdkit.Chem.rdchem.Mol object at 0x7f5838db6650>, <rdkit.Chem.rdchem.Mol object at 0x7f5838db6ab0>, <rdkit.Chem.rdchem.Mol object at 0x7f5838db61f0>]","[<rdkit.Chem.rdchem.Mol object at 0x7f5838db58c0>, <rdkit.Chem.rdchem.Mol object at 0x7f5838db62d0>, <rdkit.Chem.rdchem.Mol object at 0x7f5838db5fc0>, <rdkit.Chem.rdchem.Mol object at 0x7f5838db5ee0>, <rdkit.Chem.rdchem.Mol object at 0x7f5838db4eb0>, <rdkit.Chem.rdchem.Mol object at 0x7f5838db4dd0>, <rdkit.Chem.rdchem.Mol object at 0x7f5838db6ff0>, '.', <rdkit.Chem.rdchem.Mol object at 0x7f5838db47b0>, <rdkit.Chem.rdchem.Mol object at 0x7f5838db66c0>, <rdkit.Chem.rdchem.Mol object at 0x7f5838db4190>, <rdkit.Chem.rdchem.Mol object at 0x7f5838db4510>, <rdkit.Chem.rdchem.Mol object at 0x7f5838db6650>, <rdkit.Chem.rdchem.Mol object at 0x7f5838db6ab0>, <rdkit.Chem.rdchem.Mol object at 0x7f5838db61f0>]","[0, 0, 2463, 2464, 2465, 2466, 2467, 2468, 2469, 1, 2470, 2471, 2472, 2473, 2474, 2475, 2476]"
PTB7-Th,SiOTIC-4F,-5.204782608695651,-3.5391891891891896,-5.28,-4.11,0.667,CF,20.0,CN,25.0,8.6,8.62,0.65,61.4,"[<rdkit.Chem.rdchem.Mol object at 0x7f5838db7290>, <rdkit.Chem.rdchem.Mol object at 0x7f5838db75a0>, <rdkit.Chem.rdchem.Mol object at 0x7f5838db6880>, <rdkit.Chem.rdchem.Mol object at 0x7f5838db6c70>, <rdkit.Chem.rdchem.Mol object at 0x7f5838db6730>, <rdkit.Chem.rdchem.Mol object at 0x7f5838db6960>, <rdkit.Chem.rdchem.Mol object at 0x7f5838db69d0>]","[<rdkit.Chem.rdchem.Mol object at 0x7f5838db68f0>, <rdkit.Chem.rdchem.Mol object at 0x7f5838db6b90>, <rdkit.Chem.rdchem.Mol object at 0x7f5838db6340>, <rdkit.Chem.rdchem.Mol object at 0x7f5838db6810>, <rdkit.Chem.rdchem.Mol object at 0x7f5838db7920>, <rdkit.Chem.rdchem.Mol object at 0x7f5838db6f80>, <rdkit.Chem.rdchem.Mol object at 0x7f5838db6d50>]","[<rdkit.Chem.rdchem.Mol object at 0x7f5838db7290>, <rdkit.Chem.rdchem.Mol object at 0x7f5838db75a0>, <rdkit.Chem.rdchem.Mol object at 0x7f5838db6880>, <rdkit.Chem.rdchem.Mol object at 0x7f5838db6c70>, <rdkit.Chem.rdchem.Mol object at 0x7f5838db6730>, <rdkit.Chem.rdchem.Mol object at 0x7f5838db6960>, <rdkit.Chem.rdchem.Mol object at 0x7f5838db69d0>, '.', <rdkit.Chem.rdchem.Mol object at 0x7f5838db68f0>, <rdkit.Chem.rdchem.Mol object at 0x7f5838db6b90>, <rdkit.Chem.rdchem.Mol object at 0x7f5838db6340>, <rdkit.Chem.rdchem.Mol object at 0x7f5838db6810>, <rdkit.Chem.rdchem.Mol object at 0x7f5838db7920>, <rdkit.Chem.rdchem.Mol object at 0x7f5838db6f80>, <rdkit.Chem.rdchem.Mol object at 0x7f5838db6d50>]","[0, 0, 2477, 2478, 2479, 2480, 2481, 2482, 2483, 1, 2484, 2485, 2486, 2487, 2488, 2489, 2490]"
P3HT,BTA101,-5.057777777777777,-2.989444444444445,-5.05,-2.99,1.0,CF,15.0,_,120.0,3.55,3.55,1.19,56.0,"[<rdkit.Chem.rdchem.Mol object at 0x7f5838db43c0>, <rdkit.Chem.rdchem.Mol object at 0x7f5838db63b0>, <rdkit.Chem.rdchem.Mol object at 0x7f5838dc18c0>, <rdkit.Chem.rdchem.Mol object at 0x7f5838dc19a0>]","[<rdkit.Chem.rdchem.Mol object at 0x7f5838db6e30>, <rdkit.Chem.rdchem.Mol object at 0x7f5838db44a0>, <rdkit.Chem.rdchem.Mol object at 0x7f5838dc1fc0>, <rdkit.Chem.rdchem.Mol object at 0x7f5838dc1af0>, <rdkit.Chem.rdchem.Mol object at 0x7f5838dc1b60>, <rdkit.Chem.rdchem.Mol object at 0x7f5838dc1bd0>, <rdkit.Chem.rdchem.Mol object at 0x7f5838dc2730>, <rdkit.Chem.rdchem.Mol object at 0x7f5838dc2650>]","[<rdkit.Chem.rdchem.Mol object at 0x7f5838db43c0>, <rdkit.Chem.rdchem.Mol object at 0x7f5838db63b0>, <rdkit.Chem.rdchem.Mol object at 0x7f5838dc18c0>, <rdkit.Chem.rdchem.Mol object at 0x7f5838dc19a0>, '.', <rdkit.Chem.rdchem.Mol object at 0x7f5838db6e30>, <rdkit.Chem.rdchem.Mol object at 0x7f5838db44a0>, <rdkit.Chem.rdchem.Mol object at 0x7f5838dc1fc0>, <rdkit.Chem.rdchem.Mol object at 0x7f5838dc1af0>, <rdkit.Chem.rdchem.Mol object at 0x7f5838dc1b60>, <rdkit.Chem.rdchem.Mol object at 0x7f5838dc1bd0>, <rdkit.Chem.rdchem.Mol object at 0x7f5838dc2730>, <rdkit.Chem.rdchem.Mol object at 0x7f5838dc2650>]","[0, 0, 0, 0, 2503, 2504, 2505, 2506, 1, 2507, 2508, 2509, 2510, 2511, 2512, 2513, 2514]"
P3HT,BTA103,-5.057777777777777,-2.989444444444445,-5.21,-3.18,0.5,CF,15.0,_,120.0,5.31,5.31,0.94,66.0,"[<rdkit.Chem.rdchem.Mol object at 0x7f5838db7bc0>, <rdkit.Chem.rdchem.Mol object at 0x7f5838db6c00>, <rdkit.Chem.rdchem.Mol object at 0x7f5838dc0040>, <rdkit.Chem.rdchem.Mol object at 0x7f5838dc1620>]","[<rdkit.Chem.rdchem.Mol object at 0x7f5838db76f0>, <rdkit.Chem.rdchem.Mol object at 0x7f5838db7ed0>, <rdkit.Chem.rdchem.Mol object at 0x7f5838dc0580>, <rdkit.Chem.rdchem.Mol object at 0x7f5838dc05f0>, <rdkit.Chem.rdchem.Mol object at 0x7f5838dc2340>, <rdkit.Chem.rdchem.Mol object at 0x7f5838dc28f0>]","[<rdkit.Chem.rdchem.Mol object at 0x7f5838db7bc0>, <rdkit.Chem.rdchem.Mol object at 0x7f5838db6c00>, <rdkit.Chem.rdchem.Mol object at 0x7f5838dc0040>, <rdkit.Chem.rdchem.Mol object at 0x7f5838dc1620>, '.', <rdkit.Chem.rdchem.Mol object at 0x7f5838db76f0>, <rdkit.Chem.rdchem.Mol object at 0x7f5838db7ed0>, <rdkit.Chem.rdchem.Mol object at 0x7f5838dc0580>, <rdkit.Chem.rdchem.Mol object at 0x7f5838dc05f0>, <rdkit.Chem.rdchem.Mol object at 0x7f5838dc2340>, <rdkit.Chem.rdchem.Mol object at 0x7f5838dc28f0>]","[0, 0, 0, 0, 0, 0, 2515, 2516, 2517, 2518, 1, 2519, 2520, 2521, 2522, 2523, 2524]"
PTB7-Th,6TIC,-5.204782608695651,-3.5391891891891896,-5.33,-3.885,0.667,CB,25.0,DIO,150.0,11.07,11.06,0.831,66.16,"[<rdkit.Chem.rdchem.Mol object at 0x7f5838db67a0>, <rdkit.Chem.rdchem.Mol object at 0x7f5838db6110>, <rdkit.Chem.rdchem.Mol object at 0x7f5838db7d80>, <rdkit.Chem.rdchem.Mol object at 0x7f5838db6b20>, <rdkit.Chem.rdchem.Mol object at 0x7f5838dc2880>, <rdkit.Chem.rdchem.Mol object at 0x7f5838dc1930>, <rdkit.Chem.rdchem.Mol object at 0x7f5838dc1070>]","[<rdkit.Chem.rdchem.Mol object at 0x7f5838dc1700>, <rdkit.Chem.rdchem.Mol object at 0x7f5838dc17e0>, <rdkit.Chem.rdchem.Mol object at 0x7f5838db7a00>, <rdkit.Chem.rdchem.Mol object at 0x7f5838dc10e0>, <rdkit.Chem.rdchem.Mol object at 0x7f5838dc12a0>]","[<rdkit.Chem.rdchem.Mol object at 0x7f5838db67a0>, <rdkit.Chem.rdchem.Mol object at 0x7f5838db6110>, <rdkit.Chem.rdchem.Mol object at 0x7f5838db7d80>, <rdkit.Chem.rdchem.Mol object at 0x7f5838db6b20>, <rdkit.Chem.rdchem.Mol object at 0x7f5838dc2880>, <rdkit.Chem.rdchem.Mol object at 0x7f5838dc1930>, <rdkit.Chem.rdchem.Mol object at 0x7f5838dc1070>, '.', <rdkit.Chem.rdchem.Mol object at 0x7f5838dc1700>, <rdkit.Chem.rdchem.Mol object at 0x7f5838dc17e0>, <rdkit.Chem.rdchem.Mol object at 0x7f5838db7a00>, <rdkit.Chem.rdchem.Mol object at 0x7f5838dc10e0>, <rdkit.Chem.rdchem.Mol object at 0x7f5838dc12a0>]","[0, 0, 0, 0, 2525, 2526, 2527, 2528, 2529, 2530, 2531, 1, 2532, 2533, 2534, 2535, 2536]"
PTB7-Th,COi8DFIC,-5.204782608695651,-3.5391891891891896,-5.5,-3.88,1.0,CB,18.0,DIO,25.0,12.16,12.11,0.68,68.2,"[<rdkit.Chem.rdchem.Mol object at 0x7f5838db60a0>, <rdkit.Chem.rdchem.Mol object at 0x7f5838dc1540>, <rdkit.Chem.rdchem.Mol object at 0x7f5838dc1230>, <rdkit.Chem.rdchem.Mol object at 0x7f5838dc0350>, <rdkit.Chem.rdchem.Mol object at 0x7f5838dc1f50>, <rdkit.Chem.rdchem.Mol object at 0x7f5838dc27a0>, <rdkit.Chem.rdchem.Mol object at 0x7f5838dc13f0>]","[<rdkit.Chem.rdchem.Mol object at 0x7f5838dc1a10>, <rdkit.Chem.rdchem.Mol object at 0x7f5838dc14d0>, <rdkit.Chem.rdchem.Mol object at 0x7f5838dc1cb0>, <rdkit.Chem.rdchem.Mol object at 0x7f5838dc2110>, <rdkit.Chem.rdchem.Mol object at 0x7f5838dc1e00>]","[<rdkit.Chem.rdchem.Mol object at 0x7f5838db60a0>, <rdkit.Chem.rdchem.Mol object at 0x7f5838dc1540>, <rdkit.Chem.rdchem.Mol object at 0x7f5838dc1230>, <rdkit.Chem.rdchem.Mol object at 0x7f5838dc0350>, <rdkit.Chem.rdchem.Mol object at 0x7f5838dc1f50>, <rdkit.Chem.rdchem.Mol object at 0x7f5838dc27a0>, <rdkit.Chem.rdchem.Mol object at 0x7f5838dc13f0>, '.', <rdkit.Chem.rdchem.Mol object at 0x7f5838dc1a10>, <rdkit.Chem.rdchem.Mol object at 0x7f5838dc14d0>, <rdkit.Chem.rdchem.Mol object at 0x7f5838dc1cb0>, <rdkit.Chem.rdchem.Mol object at 0x7f5838dc2110>, <rdkit.Chem.rdchem.Mol object at 0x7f5838dc1e00>]","[0, 0, 0, 0, 2537, 2538, 2539, 2540, 2541, 2542, 2543, 1, 2544, 2545, 2546, 2547, 2548]"
PTB7-Th,ATT-2,-5.204782608695651,-3.5391891891891896,-5.5,-3.9,0.556,CB,22.4,CN,25.0,9.58,9.54,0.73,63.0,"[<rdkit.Chem.rdchem.Mol object at 0x7f5838dc1690>, <rdkit.Chem.rdchem.Mol object at 0x7f5838dc2030>, <rdkit.Chem.rdchem.Mol object at 0x7f5838dc1a80>, <rdkit.Chem.rdchem.Mol object at 0x7f5838dc0120>, <rdkit.Chem.rdchem.Mol object at 0x7f5838dc22d0>, <rdkit.Chem.rdchem.Mol object at 0x7f5838dc0f90>, <rdkit.Chem.rdchem.Mol object at 0x7f5838dc2570>]","[<rdkit.Chem.rdchem.Mol object at 0x7f5838dc02e0>, <rdkit.Chem.rdchem.Mol object at 0x7f5838dc0eb0>, <rdkit.Chem.rdchem.Mol object at 0x7f5838dc07b0>, <rdkit.Chem.rdchem.Mol object at 0x7f5838dc0c80>, <rdkit.Chem.rdchem.Mol object at 0x7f5838dc0190>, <rdkit.Chem.rdchem.Mol object at 0x7f5838dc26c0>, <rdkit.Chem.rdchem.Mol object at 0x7f5838dc23b0>, <rdkit.Chem.rdchem.Mol object at 0x7f5838dc2dc0>, <rdkit.Chem.rdchem.Mol object at 0x7f5838dc2ab0>]","[<rdkit.Chem.rdchem.Mol object at 0x7f5838dc1690>, <rdkit.Chem.rdchem.Mol object at 0x7f5838dc2030>, <rdkit.Chem.rdchem.Mol object at 0x7f5838dc1a80>, <rdkit.Chem.rdchem.Mol object at 0x7f5838dc0120>, <rdkit.Chem.rdchem.Mol object at 0x7f5838dc22d0>, <rdkit.Chem.rdchem.Mol object at 0x7f5838dc0f90>, <rdkit.Chem.rdchem.Mol object at 0x7f5838dc2570>, '.', <rdkit.Chem.rdchem.Mol object at 0x7f5838dc02e0>, <rdkit.Chem.rdchem.Mol object at 0x7f5838dc0eb0>, <rdkit.Chem.rdchem.Mol object at 0x7f5838dc07b0>, <rdkit.Chem.rdchem.Mol object at 0x7f5838dc0c80>, <rdkit.Chem.rdchem.Mol object at 0x7f5838dc0190>, <rdkit.Chem.rdchem.Mol object at 0x7f5838dc26c0>, <rdkit.Chem.rdchem.Mol object at 0x7f5838dc23b0>, <rdkit.Chem.rdchem.Mol object at 0x7f5838dc2dc0>, <rdkit.Chem.rdchem.Mol object at 0x7f5838dc2ab0>]","[2574, 2575, 2576, 2577, 2578, 2579, 2580, 1, 2581, 2582, 2583, 2584, 2585, 2586, 2587, 2588, 2589]"
PTB7-Th,T1,-5.204782608695651,-3.5391891891891896,-5.42,-3.91,0.556,CB,20.0,_,25.0,9.82,9.8,0.72,65.0,"[<rdkit.Chem.rdchem.Mol object at 0x7f5838dc2f80>, <rdkit.Chem.rdchem.Mol object at 0x7f5838dc2ff0>, <rdkit.Chem.rdchem.Mol object at 0x7f5838dc0cf0>, <rdkit.Chem.rdchem.Mol object at 0x7f5838dc2e30>, <rdkit.Chem.rdchem.Mol object at 0x7f5838dc00b0>, <rdkit.Chem.rdchem.Mol object at 0x7f5838dc0270>, <rdkit.Chem.rdchem.Mol object at 0x7f5838dc1ee0>]","[<rdkit.Chem.rdchem.Mol object at 0x7f5838dc0ac0>, <rdkit.Chem.rdchem.Mol object at 0x7f5838dc0200>, <rdkit.Chem.rdchem.Mol object at 0x7f5838dc2490>, <rdkit.Chem.rdchem.Mol object at 0x7f5838dc2420>, <rdkit.Chem.rdchem.Mol object at 0x7f5838dc0890>, <rdkit.Chem.rdchem.Mol object at 0x7f5838dc0c10>, <rdkit.Chem.rdchem.Mol object at 0x7f5838dc2500>, <rdkit.Chem.rdchem.Mol object at 0x7f5838dc34c0>, <rdkit.Chem.rdchem.Mol object at 0x7f5838dc3140>]","[<rdkit.Chem.rdchem.Mol object at 0x7f5838dc2f80>, <rdkit.Chem.rdchem.Mol object at 0x7f5838dc2ff0>, <rdkit.Chem.rdchem.Mol object at 0x7f5838dc0cf0>, <rdkit.Chem.rdchem.Mol object at 0x7f5838dc2e30>, <rdkit.Chem.rdchem.Mol object at 0x7f5838dc00b0>, <rdkit.Chem.rdchem.Mol object at 0x7f5838dc0270>, <rdkit.Chem.rdchem.Mol object at 0x7f5838dc1ee0>, '.', <rdkit.Chem.rdchem.Mol object at 0x7f5838dc0ac0>, <rdkit.Chem.rdchem.Mol object at 0x7f5838dc0200>, <rdkit.Chem.rdchem.Mol object at 0x7f5838dc2490>, <rdkit.Chem.rdchem.Mol object at 0x7f5838dc2420>, <rdkit.Chem.rdchem.Mol object at 0x7f5838dc0890>, <rdkit.Chem.rdchem.Mol object at 0x7f5838dc0c10>, <rdkit.Chem.rdchem.Mol object at 0x7f5838dc2500>, <rdkit.Chem.rdchem.Mol object at 0x7f5838dc34c0>, <rdkit.Chem.rdchem.Mol object at 0x7f5838dc3140>]","[2590, 2591, 2592, 2593, 2594, 2595, 2596, 1, 2597, 2598, 2599, 2600, 2601, 2602, 2603, 2604, 2605]"
PTB7-Th,T3,-5.204782608695651,-3.5391891891891896,-5.31,-4.0,0.556,CB,20.0,_,25.0,9.43,9.39,0.61,70.0,"[<rdkit.Chem.rdchem.Mol object at 0x7f5838dc3d80>, <rdkit.Chem.rdchem.Mol object at 0x7f5838dc3df0>, <rdkit.Chem.rdchem.Mol object at 0x7f5838dc3450>, <rdkit.Chem.rdchem.Mol object at 0x7f5838dc3c30>, <rdkit.Chem.rdchem.Mol object at 0x7f5838dc0e40>, <rdkit.Chem.rdchem.Mol object at 0x7f5838dc3370>, <rdkit.Chem.rdchem.Mol object at 0x7f5838dc3290>]","[<rdkit.Chem.rdchem.Mol object at 0x7f5838dc3220>, <rdkit.Chem.rdchem.Mol object at 0x7f5838dc0b30>, <rdkit.Chem.rdchem.Mol object at 0x7f5838dc3060>, <rdkit.Chem.rdchem.Mol object at 0x7f5838dc04a0>, <rdkit.Chem.rdchem.Mol object at 0x7f5838dc2ce0>, <rdkit.Chem.rdchem.Mol object at 0x7f5838dc30d0>, <rdkit.Chem.rdchem.Mol object at 0x7f5838dc0740>, <rdkit.Chem.rdchem.Mol object at 0x7f5838dc4350>, <rdkit.Chem.rdchem.Mol object at 0x7f5838dc40b0>]","[<rdkit.Chem.rdchem.Mol object at 0x7f5838dc3d80>, <rdkit.Chem.rdchem.Mol object at 0x7f5838dc3df0>, <rdkit.Chem.rdchem.Mol object at 0x7f5838dc3450>, <rdkit.Chem.rdchem.Mol object at 0x7f5838dc3c30>, <rdkit.Chem.rdchem.Mol object at 0x7f5838dc0e40>, <rdkit.Chem.rdchem.Mol object at 0x7f5838dc3370>, <rdkit.Chem.rdchem.Mol object at 0x7f5838dc3290>, '.', <rdkit.Chem.rdchem.Mol object at 0x7f5838dc3220>, <rdkit.Chem.rdchem.Mol object at 0x7f5838dc0b30>, <rdkit.Chem.rdchem.Mol object at 0x7f5838dc3060>, <rdkit.Chem.rdchem.Mol object at 0x7f5838dc04a0>, <rdkit.Chem.rdchem.Mol object at 0x7f5838dc2ce0>, <rdkit.Chem.rdchem.Mol object at 0x7f5838dc30d0>, <rdkit.Chem.rdchem.Mol object at 0x7f5838dc0740>, <rdkit.Chem.rdchem.Mol object at 0x7f5838dc4350>, <rdkit.Chem.rdchem.Mol object at 0x7f5838dc40b0>]","[2622, 2623, 2624, 2625, 2626, 2627, 2628, 1, 2629, 2630, 2631, 2632, 2633, 2634, 2635, 2636, 2637]"
PTB7-Th,ATT-1,-5.204782608695651,-3.5391891891891896,-5.5,-3.63,0.667,o-DCB,25.0,DIO,25.0,10.07,10.04,0.87,70.0,"[<rdkit.Chem.rdchem.Mol object at 0x7f5838dc2810>, <rdkit.Chem.rdchem.Mol object at 0x7f5838dc3a70>, <rdkit.Chem.rdchem.Mol object at 0x7f5838dc2c00>, <rdkit.Chem.rdchem.Mol object at 0x7f5838dc3ca0>, <rdkit.Chem.rdchem.Mol object at 0x7f5838dc38b0>, <rdkit.Chem.rdchem.Mol object at 0x7f5838dc3760>, <rdkit.Chem.rdchem.Mol object at 0x7f5838db65e0>]","[<rdkit.Chem.rdchem.Mol object at 0x7f5838dc35a0>, <rdkit.Chem.rdchem.Mol object at 0x7f5838dc3610>, <rdkit.Chem.rdchem.Mol object at 0x7f5838dc31b0>, <rdkit.Chem.rdchem.Mol object at 0x7f5838dc37d0>, <rdkit.Chem.rdchem.Mol object at 0x7f5838dc3d10>, <rdkit.Chem.rdchem.Mol object at 0x7f5838dc42e0>, <rdkit.Chem.rdchem.Mol object at 0x7f5838dc44a0>]","[<rdkit.Chem.rdchem.Mol object at 0x7f5838dc2810>, <rdkit.Chem.rdchem.Mol object at 0x7f5838dc3a70>, <rdkit.Chem.rdchem.Mol object at 0x7f5838dc2c00>, <rdkit.Chem.rdchem.Mol object at 0x7f5838dc3ca0>, <rdkit.Chem.rdchem.Mol object at 0x7f5838dc38b0>, <rdkit.Chem.rdchem.Mol object at 0x7f5838dc3760>, <rdkit.Chem.rdchem.Mol object at 0x7f5838db65e0>, '.', <rdkit.Chem.rdchem.Mol object at 0x7f5838dc35a0>, <rdkit.Chem.rdchem.Mol object at 0x7f5838dc3610>, <rdkit.Chem.rdchem.Mol object at 0x7f5838dc31b0>, <rdkit.Chem.rdchem.Mol object at 0x7f5838dc37d0>, <rdkit.Chem.rdchem.Mol object at 0x7f5838dc3d10>, <rdkit.Chem.rdchem.Mol object at 0x7f5838dc42e0>, <rdkit.Chem.rdchem.Mol object at 0x7f5838dc44a0>]","[0, 0, 2638, 2639, 2640, 2641, 2642, 2643, 2644, 1, 2645, 2646, 2647, 2648, 2649, 2650, 2651]"
PDBT-T1,IC-C6IDT-IC,-5.36,-3.43,-5.69,-3.91,1.0,CF,12.0,_,25.0,8.71,8.71,0.89,65.0,"[<rdkit.Chem.rdchem.Mol object at 0x7f5838db70d0>, <rdkit.Chem.rdchem.Mol object at 0x7f5838dc3a00>, <rdkit.Chem.rdchem.Mol object at 0x7f5838dc4660>, <rdkit.Chem.rdchem.Mol object at 0x7f5838dc4040>, <rdkit.Chem.rdchem.Mol object at 0x7f5838dc4900>, <rdkit.Chem.rdchem.Mol object at 0x7f5838dc4d60>]","[<rdkit.Chem.rdchem.Mol object at 0x7f5838dc3920>, <rdkit.Chem.rdchem.Mol object at 0x7f5838dc5380>, <rdkit.Chem.rdchem.Mol object at 0x7f5838dc33e0>, <rdkit.Chem.rdchem.Mol object at 0x7f5838dc3990>]","[<rdkit.Chem.rdchem.Mol object at 0x7f5838db70d0>, <rdkit.Chem.rdchem.Mol object at 0x7f5838dc3a00>, <rdkit.Chem.rdchem.Mol object at 0x7f5838dc4660>, <rdkit.Chem.rdchem.Mol object at 0x7f5838dc4040>, <rdkit.Chem.rdchem.Mol object at 0x7f5838dc4900>, <rdkit.Chem.rdchem.Mol object at 0x7f5838dc4d60>, '.', <rdkit.Chem.rdchem.Mol object at 0x7f5838dc3920>, <rdkit.Chem.rdchem.Mol object at 0x7f5838dc5380>, <rdkit.Chem.rdchem.Mol object at 0x7f5838dc33e0>, <rdkit.Chem.rdchem.Mol object at 0x7f5838dc3990>]","[0, 0, 0, 0, 0, 0, 2652, 2653, 2654, 2655, 2656, 2657, 1, 2658, 2659, 2660, 2661]"
PMOT16,ITIC,-5.52,-3.66,-5.574146341463415,-3.915,1.0,CF,12.0,DIO,25.0,7.63,7.64,1.001,58.7,"[<rdkit.Chem.rdchem.Mol object at 0x7f5838dc3ed0>, <rdkit.Chem.rdchem.Mol object at 0x7f5838dc53f0>, <rdkit.Chem.rdchem.Mol object at 0x7f5838dc2ea0>, <rdkit.Chem.rdchem.Mol object at 0x7f5838dc4190>, <rdkit.Chem.rdchem.Mol object at 0x7f5838dc49e0>, <rdkit.Chem.rdchem.Mol object at 0x7f5838dc46d0>, <rdkit.Chem.rdchem.Mol object at 0x7f5838dc52a0>, <rdkit.Chem.rdchem.Mol object at 0x7f5838dc61f0>, <rdkit.Chem.rdchem.Mol object at 0x7f5838dc4890>]","[<rdkit.Chem.rdchem.Mol object at 0x7f5838dc67a0>, <rdkit.Chem.rdchem.Mol object at 0x7f5838dc6030>, <rdkit.Chem.rdchem.Mol object at 0x7f5838dc62d0>, <rdkit.Chem.rdchem.Mol object at 0x7f5838dc6260>, <rdkit.Chem.rdchem.Mol object at 0x7f5838dc57e0>]","[<rdkit.Chem.rdchem.Mol object at 0x7f5838dc3ed0>, <rdkit.Chem.rdchem.Mol object at 0x7f5838dc53f0>, <rdkit.Chem.rdchem.Mol object at 0x7f5838dc2ea0>, <rdkit.Chem.rdchem.Mol object at 0x7f5838dc4190>, <rdkit.Chem.rdchem.Mol object at 0x7f5838dc49e0>, <rdkit.Chem.rdchem.Mol object at 0x7f5838dc46d0>, <rdkit.Chem.rdchem.Mol object at 0x7f5838dc52a0>, <rdkit.Chem.rdchem.Mol object at 0x7f5838dc61f0>, <rdkit.Chem.rdchem.Mol object at 0x7f5838dc4890>, '.', <rdkit.Chem.rdchem.Mol object at 0x7f5838dc67a0>, <rdkit.Chem.rdchem.Mol object at 0x7f5838dc6030>, <rdkit.Chem.rdchem.Mol object at 0x7f5838dc62d0>, <rdkit.Chem.rdchem.Mol object at 0x7f5838dc6260>, <rdkit.Chem.rdchem.Mol object at 0x7f5838dc57e0>]","[0, 0, 2675, 2676, 2677, 2678, 2679, 2680, 2681, 2682, 2683, 1, 2684, 2685, 2686, 2687, 2688]"