Donor,Acceptor,HOMO_D_eV,LUMO_D_eV,HOMO_A_eV,LUMO_A_eV,D_A_ratio_m_m,solvent,total_solids_conc_mg_mL,solvent_additive,annealing_temperature,PCE_percent,calc_PCE_percent,Voc_V,FF_percent,Donor_BRICS,Acceptor_BRICS,DA_pair_BRICS,DA_tokenized_BRICS
TBF-BT,ITIC,-5.4,-3.55,-5.574146341463415,-3.915,1.0,CF,16.0,_,110.0,7.03,7.09,0.81,63.0,"[<rdkit.Chem.rdchem.Mol object at 0x7f5838cef220>, <rdkit.Chem.rdchem.Mol object at 0x7f5838ceef10>, <rdkit.Chem.rdchem.Mol object at 0x7f5838cee0a0>, <rdkit.Chem.rdchem.Mol object at 0x7f5838cf8f90>, <rdkit.Chem.rdchem.Mol object at 0x7f5838cf8ac0>, <rdkit.Chem.rdchem.Mol object at 0x7f5838cf90e0>, <rdkit.Chem.rdchem.Mol object at 0x7f5838cf8d60>, <rdkit.Chem.rdchem.Mol object at 0x7f5838cf91c0>]","[<rdkit.Chem.rdchem.Mol object at 0x7f5838cef990>, <rdkit.Chem.rdchem.Mol object at 0x7f5838cef840>, <rdkit.Chem.rdchem.Mol object at 0x7f5838cef760>, <rdkit.Chem.rdchem.Mol object at 0x7f5838cefc30>, <rdkit.Chem.rdchem.Mol object at 0x7f5838cef6f0>]","[<rdkit.Chem.rdchem.Mol object at 0x7f5838cef220>, <rdkit.Chem.rdchem.Mol object at 0x7f5838ceef10>, <rdkit.Chem.rdchem.Mol object at 0x7f5838cee0a0>, <rdkit.Chem.rdchem.Mol object at 0x7f5838cf8f90>, <rdkit.Chem.rdchem.Mol object at 0x7f5838cf8ac0>, <rdkit.Chem.rdchem.Mol object at 0x7f5838cf90e0>, <rdkit.Chem.rdchem.Mol object at 0x7f5838cf8d60>, <rdkit.Chem.rdchem.Mol object at 0x7f5838cf91c0>, '.', <rdkit.Chem.rdchem.Mol object at 0x7f5838cef990>, <rdkit.Chem.rdchem.Mol object at 0x7f5838cef840>, <rdkit.Chem.rdchem.Mol object at 0x7f5838cef760>, <rdkit.Chem.rdchem.Mol object at 0x7f5838cefc30>, <rdkit.Chem.rdchem.Mol object at 0x7f5838cef6f0>]","[0, 0, 0, 6037, 6038, 6039, 6040, 6041, 6042, 6043, 6044, 1, 6045, 6046, 6047, 6048, 6049]"
PBT,CzC6C8,-5.43,-3.65,-5.79,-3.79,0.333,CB,25.0,_,130.0,3.3,3.34,0.99,41.0,"[<rdkit.Chem.rdchem.Mol object at 0x7f5838cef3e0>, <rdkit.Chem.rdchem.Mol object at 0x7f5838ceece0>, <rdkit.Chem.rdchem.Mol object at 0x7f5838cef370>, <rdkit.Chem.rdchem.Mol object at 0x7f5838cef7d0>, <rdkit.Chem.rdchem.Mol object at 0x7f5838cefca0>, <rdkit.Chem.rdchem.Mol object at 0x7f5838cefe60>, <rdkit.Chem.rdchem.Mol object at 0x7f5838cefa00>, <rdkit.Chem.rdchem.Mol object at 0x7f5838ceff40>, <rdkit.Chem.rdchem.Mol object at 0x7f5838cef0d0>]","[<rdkit.Chem.rdchem.Mol object at 0x7f5838cee730>, <rdkit.Chem.rdchem.Mol object at 0x7f5838cef680>, <rdkit.Chem.rdchem.Mol object at 0x7f5838cedbd0>, <rdkit.Chem.rdchem.Mol object at 0x7f5838cefb50>, <rdkit.Chem.rdchem.Mol object at 0x7f5838cefd10>, <rdkit.Chem.rdchem.Mol object at 0x7f5838cefdf0>]","[<rdkit.Chem.rdchem.Mol object at 0x7f5838cef3e0>, <rdkit.Chem.rdchem.Mol object at 0x7f5838ceece0>, <rdkit.Chem.rdchem.Mol object at 0x7f5838cef370>, <rdkit.Chem.rdchem.Mol object at 0x7f5838cef7d0>, <rdkit.Chem.rdchem.Mol object at 0x7f5838cefca0>, <rdkit.Chem.rdchem.Mol object at 0x7f5838cefe60>, <rdkit.Chem.rdchem.Mol object at 0x7f5838cefa00>, <rdkit.Chem.rdchem.Mol object at 0x7f5838ceff40>, <rdkit.Chem.rdchem.Mol object at 0x7f5838cef0d0>, '.', <rdkit.Chem.rdchem.Mol object at 0x7f5838cee730>, <rdkit.Chem.rdchem.Mol object at 0x7f5838cef680>, <rdkit.Chem.rdchem.Mol object at 0x7f5838cedbd0>, <rdkit.Chem.rdchem.Mol object at 0x7f5838cefb50>, <rdkit.Chem.rdchem.Mol object at 0x7f5838cefd10>, <rdkit.Chem.rdchem.Mol object at 0x7f5838cefdf0>]","[0, 6050, 6051, 6052, 6053, 6054, 6055, 6056, 6057, 6058, 1, 6059, 6060, 6061, 6062, 6063, 6064]"
PBT,CZC8,-5.43,-3.65,-5.72,-3.74,0.333,CB,25.0,_,130.0,4.64,4.64,1.03,50.0,"[<rdkit.Chem.rdchem.Mol object at 0x7f5838cefa70>, <rdkit.Chem.rdchem.Mol object at 0x7f5838cefae0>, <rdkit.Chem.rdchem.Mol object at 0x7f5838cef5a0>, <rdkit.Chem.rdchem.Mol object at 0x7f5838cedaf0>, <rdkit.Chem.rdchem.Mol object at 0x7f5838ceeea0>, <rdkit.Chem.rdchem.Mol object at 0x7f5838cef530>, <rdkit.Chem.rdchem.Mol object at 0x7f5838cee810>, <rdkit.Chem.rdchem.Mol object at 0x7f5838cef610>, <rdkit.Chem.rdchem.Mol object at 0x7f5838ceeab0>]","[<rdkit.Chem.rdchem.Mol object at 0x7f5838ceda80>, <rdkit.Chem.rdchem.Mol object at 0x7f5838ceec70>, <rdkit.Chem.rdchem.Mol object at 0x7f5838cef920>, <rdkit.Chem.rdchem.Mol object at 0x7f5838cedd20>, <rdkit.Chem.rdchem.Mol object at 0x7f5838cefbc0>, <rdkit.Chem.rdchem.Mol object at 0x7f5838cee9d0>]","[<rdkit.Chem.rdchem.Mol object at 0x7f5838cefa70>, <rdkit.Chem.rdchem.Mol object at 0x7f5838cefae0>, <rdkit.Chem.rdchem.Mol object at 0x7f5838cef5a0>, <rdkit.Chem.rdchem.Mol object at 0x7f5838cedaf0>, <rdkit.Chem.rdchem.Mol object at 0x7f5838ceeea0>, <rdkit.Chem.rdchem.Mol object at 0x7f5838cef530>, <rdkit.Chem.rdchem.Mol object at 0x7f5838cee810>, <rdkit.Chem.rdchem.Mol object at 0x7f5838cef610>, <rdkit.Chem.rdchem.Mol object at 0x7f5838ceeab0>, '.', <rdkit.Chem.rdchem.Mol object at 0x7f5838ceda80>, <rdkit.Chem.rdchem.Mol object at 0x7f5838ceec70>, <rdkit.Chem.rdchem.Mol object at 0x7f5838cef920>, <rdkit.Chem.rdchem.Mol object at 0x7f5838cedd20>, <rdkit.Chem.rdchem.Mol object at 0x7f5838cefbc0>, <rdkit.Chem.rdchem.Mol object at 0x7f5838cee9d0>]","[0, 6065, 6066, 6067, 6068, 6069, 6070, 6071, 6072, 6073, 1, 6074, 6075, 6076, 6077, 6078, 6079]"
PTFBDT,CZC8,-5.5,-3.69,-5.72,-3.74,0.333,CB,25.0,_,150.0,4.67,4.73,1.16,51.0,"[<rdkit.Chem.rdchem.Mol object at 0x7f5838cee340>, <rdkit.Chem.rdchem.Mol object at 0x7f5838cee7a0>, <rdkit.Chem.rdchem.Mol object at 0x7f5838cef300>, <rdkit.Chem.rdchem.Mol object at 0x7f5838cf8e40>, <rdkit.Chem.rdchem.Mol object at 0x7f5838cef1b0>, <rdkit.Chem.rdchem.Mol object at 0x7f5838cf8f20>, <rdkit.Chem.rdchem.Mol object at 0x7f5838cf9000>, <rdkit.Chem.rdchem.Mol object at 0x7f5838cf8c10>]","[<rdkit.Chem.rdchem.Mol object at 0x7f5838cee3b0>, <rdkit.Chem.rdchem.Mol object at 0x7f5838cf8200>, <rdkit.Chem.rdchem.Mol object at 0x7f5838ceedc0>, <rdkit.Chem.rdchem.Mol object at 0x7f5838cf87b0>, <rdkit.Chem.rdchem.Mol object at 0x7f5838cf8580>, <rdkit.Chem.rdchem.Mol object at 0x7f5838cf9540>]","[<rdkit.Chem.rdchem.Mol object at 0x7f5838cee340>, <rdkit.Chem.rdchem.Mol object at 0x7f5838cee7a0>, <rdkit.Chem.rdchem.Mol object at 0x7f5838cef300>, <rdkit.Chem.rdchem.Mol object at 0x7f5838cf8e40>, <rdkit.Chem.rdchem.Mol object at 0x7f5838cef1b0>, <rdkit.Chem.rdchem.Mol object at 0x7f5838cf8f20>, <rdkit.Chem.rdchem.Mol object at 0x7f5838cf9000>, <rdkit.Chem.rdchem.Mol object at 0x7f5838cf8c10>, '.', <rdkit.Chem.rdchem.Mol object at 0x7f5838cee3b0>, <rdkit.Chem.rdchem.Mol object at 0x7f5838cf8200>, <rdkit.Chem.rdchem.Mol object at 0x7f5838ceedc0>, <rdkit.Chem.rdchem.Mol object at 0x7f5838cf87b0>, <rdkit.Chem.rdchem.Mol object at 0x7f5838cf8580>, <rdkit.Chem.rdchem.Mol object at 0x7f5838cf9540>]","[0, 0, 6093, 6094, 6095, 6096, 6097, 6098, 6099, 6100, 1, 6101, 6102, 6103, 6104, 6105, 6106]"
PTB7-Th,BTA7,-5.204782608695651,-3.5391891891891896,-5.56,-3.66,0.5,CF,15.0,DPE,80.0,4.6,4.6,1.05,42.0,"[<rdkit.Chem.rdchem.Mol object at 0x7f5838cf95b0>, <rdkit.Chem.rdchem.Mol object at 0x7f5838cfab90>, <rdkit.Chem.rdchem.Mol object at 0x7f5838cfa810>, <rdkit.Chem.rdchem.Mol object at 0x7f5838cfab20>, <rdkit.Chem.rdchem.Mol object at 0x7f5838cfa180>, <rdkit.Chem.rdchem.Mol object at 0x7f5838cfa9d0>, <rdkit.Chem.rdchem.Mol object at 0x7f5838cfa490>]","[<rdkit.Chem.rdchem.Mol object at 0x7f5838cfadc0>, <rdkit.Chem.rdchem.Mol object at 0x7f5838cfa880>, <rdkit.Chem.rdchem.Mol object at 0x7f5838cfa420>, <rdkit.Chem.rdchem.Mol object at 0x7f5838cfa570>, <rdkit.Chem.rdchem.Mol object at 0x7f5838cfb990>, <rdkit.Chem.rdchem.Mol object at 0x7f5838cfb8b0>]","[<rdkit.Chem.rdchem.Mol object at 0x7f5838cf95b0>, <rdkit.Chem.rdchem.Mol object at 0x7f5838cfab90>, <rdkit.Chem.rdchem.Mol object at 0x7f5838cfa810>, <rdkit.Chem.rdchem.Mol object at 0x7f5838cfab20>, <rdkit.Chem.rdchem.Mol object at 0x7f5838cfa180>, <rdkit.Chem.rdchem.Mol object at 0x7f5838cfa9d0>, <rdkit.Chem.rdchem.Mol object at 0x7f5838cfa490>, '.', <rdkit.Chem.rdchem.Mol object at 0x7f5838cfadc0>, <rdkit.Chem.rdchem.Mol object at 0x7f5838cfa880>, <rdkit.Chem.rdchem.Mol object at 0x7f5838cfa420>, <rdkit.Chem.rdchem.Mol object at 0x7f5838cfa570>, <rdkit.Chem.rdchem.Mol object at 0x7f5838cfb990>, <rdkit.Chem.rdchem.Mol object at 0x7f5838cfb8b0>]","[0, 0, 0, 6132, 6133, 6134, 6135, 6136, 6137, 6138, 1, 6139, 6140, 6141, 6142, 6143, 6144]"
PTB7-Th,BTA1,-5.204782608695651,-3.5391891891891896,-5.510000000000001,-3.5499999999999994,0.5,CF,15.0,DPE,80.0,0.06,0.05,0.93,29.0,"[<rdkit.Chem.rdchem.Mol object at 0x7f5838cfb840>, <rdkit.Chem.rdchem.Mol object at 0x7f5838cfb7d0>, <rdkit.Chem.rdchem.Mol object at 0x7f5838cfb920>, <rdkit.Chem.rdchem.Mol object at 0x7f5838cfb760>, <rdkit.Chem.rdchem.Mol object at 0x7f5838cfb300>, <rdkit.Chem.rdchem.Mol object at 0x7f5838cfb3e0>, <rdkit.Chem.rdchem.Mol object at 0x7f5838cfaa40>]","[<rdkit.Chem.rdchem.Mol object at 0x7f5838cf8cf0>, <rdkit.Chem.rdchem.Mol object at 0x7f5838cfaff0>, <rdkit.Chem.rdchem.Mol object at 0x7f5838cfb220>, <rdkit.Chem.rdchem.Mol object at 0x7f5838cfb370>, <rdkit.Chem.rdchem.Mol object at 0x7f5838cfb140>, <rdkit.Chem.rdchem.Mol object at 0x7f5838cfbed0>, <rdkit.Chem.rdchem.Mol object at 0x7f5838cfbf40>]","[<rdkit.Chem.rdchem.Mol object at 0x7f5838cfb840>, <rdkit.Chem.rdchem.Mol object at 0x7f5838cfb7d0>, <rdkit.Chem.rdchem.Mol object at 0x7f5838cfb920>, <rdkit.Chem.rdchem.Mol object at 0x7f5838cfb760>, <rdkit.Chem.rdchem.Mol object at 0x7f5838cfb300>, <rdkit.Chem.rdchem.Mol object at 0x7f5838cfb3e0>, <rdkit.Chem.rdchem.Mol object at 0x7f5838cfaa40>, '.', <rdkit.Chem.rdchem.Mol object at 0x7f5838cf8cf0>, <rdkit.Chem.rdchem.Mol object at 0x7f5838cfaff0>, <rdkit.Chem.rdchem.Mol object at 0x7f5838cfb220>, <rdkit.Chem.rdchem.Mol object at 0x7f5838cfb370>, <rdkit.Chem.rdchem.Mol object at 0x7f5838cfb140>, <rdkit.Chem.rdchem.Mol object at 0x7f5838cfbed0>, <rdkit.Chem.rdchem.Mol object at 0x7f5838cfbf40>]","[0, 0, 6145, 6146, 6147, 6148, 6149, 6150, 6151, 1, 6152, 6153, 6154, 6155, 6156, 6157, 6158]"
PTB7-Th,BTA2,-5.204782608695651,-3.5391891891891896,-5.43,-3.3800000000000003,0.5,CF,15.0,DPE,80.0,0.01,0.01,1.01,27.0,"[<rdkit.Chem.rdchem.Mol object at 0x7f5838cfbe60>, <rdkit.Chem.rdchem.Mol object at 0x7f5838cfbc30>, <rdkit.Chem.rdchem.Mol object at 0x7f5838cfbae0>, <rdkit.Chem.rdchem.Mol object at 0x7f5838cfbbc0>, <rdkit.Chem.rdchem.Mol object at 0x7f5838cf8510>, <rdkit.Chem.rdchem.Mol object at 0x7f5838cfba00>, <rdkit.Chem.rdchem.Mol object at 0x7f5838cf9e00>]","[<rdkit.Chem.rdchem.Mol object at 0x7f5838cf8a50>, <rdkit.Chem.rdchem.Mol object at 0x7f5838cfb5a0>, <rdkit.Chem.rdchem.Mol object at 0x7f5838cfb0d0>, <rdkit.Chem.rdchem.Mol object at 0x7f5838cfac70>, <rdkit.Chem.rdchem.Mol object at 0x7f5838cfbd10>, <rdkit.Chem.rdchem.Mol object at 0x7f5838d046d0>, <rdkit.Chem.rdchem.Mol object at 0x7f5838cf9d20>]","[<rdkit.Chem.rdchem.Mol object at 0x7f5838cfbe60>, <rdkit.Chem.rdchem.Mol object at 0x7f5838cfbc30>, <rdkit.Chem.rdchem.Mol object at 0x7f5838cfbae0>, <rdkit.Chem.rdchem.Mol object at 0x7f5838cfbbc0>, <rdkit.Chem.rdchem.Mol object at 0x7f5838cf8510>, <rdkit.Chem.rdchem.Mol object at 0x7f5838cfba00>, <rdkit.Chem.rdchem.Mol object at 0x7f5838cf9e00>, '.', <rdkit.Chem.rdchem.Mol object at 0x7f5838cf8a50>, <rdkit.Chem.rdchem.Mol object at 0x7f5838cfb5a0>, <rdkit.Chem.rdchem.Mol object at 0x7f5838cfb0d0>, <rdkit.Chem.rdchem.Mol object at 0x7f5838cfac70>, <rdkit.Chem.rdchem.Mol object at 0x7f5838cfbd10>, <rdkit.Chem.rdchem.Mol object at 0x7f5838d046d0>, <rdkit.Chem.rdchem.Mol object at 0x7f5838cf9d20>]","[0, 0, 6159, 6160, 6161, 6162, 6163, 6164, 6165, 1, 6166, 6167, 6168, 6169, 6170, 6171, 6172]"
P3HT,BTA2,-5.057777777777777,-2.989444444444445,-5.43,-3.3800000000000003,0.6,CF,15.0,DIO,100.0,4.5,4.5,1.22,60.0,"[<rdkit.Chem.rdchem.Mol object at 0x7f5838cfac00>, <rdkit.Chem.rdchem.Mol object at 0x7f5838cf9ee0>, <rdkit.Chem.rdchem.Mol object at 0x7f5838cf8eb0>, <rdkit.Chem.rdchem.Mol object at 0x7f5838cf80b0>]","[<rdkit.Chem.rdchem.Mol object at 0x7f5838cf8350>, <rdkit.Chem.rdchem.Mol object at 0x7f5838cfbb50>, <rdkit.Chem.rdchem.Mol object at 0x7f5838cfaf10>, <rdkit.Chem.rdchem.Mol object at 0x7f5838cf82e0>, <rdkit.Chem.rdchem.Mol object at 0x7f5838cfb1b0>, <rdkit.Chem.rdchem.Mol object at 0x7f5838d05070>, <rdkit.Chem.rdchem.Mol object at 0x7f5838cfa260>]","[<rdkit.Chem.rdchem.Mol object at 0x7f5838cfac00>, <rdkit.Chem.rdchem.Mol object at 0x7f5838cf9ee0>, <rdkit.Chem.rdchem.Mol object at 0x7f5838cf8eb0>, <rdkit.Chem.rdchem.Mol object at 0x7f5838cf80b0>, '.', <rdkit.Chem.rdchem.Mol object at 0x7f5838cf8350>, <rdkit.Chem.rdchem.Mol object at 0x7f5838cfbb50>, <rdkit.Chem.rdchem.Mol object at 0x7f5838cfaf10>, <rdkit.Chem.rdchem.Mol object at 0x7f5838cf82e0>, <rdkit.Chem.rdchem.Mol object at 0x7f5838cfb1b0>, <rdkit.Chem.rdchem.Mol object at 0x7f5838d05070>, <rdkit.Chem.rdchem.Mol object at 0x7f5838cfa260>]","[0, 0, 0, 0, 0, 6184, 6185, 6186, 6187, 1, 6188, 6189, 6190, 6191, 6192, 6193, 6194]"
P3HT,BT2,-5.057777777777777,-2.989444444444445,-5.5,-3.53,1.5,CF,15.0,_,150.0,4.93,4.93,0.97,67.0,"[<rdkit.Chem.rdchem.Mol object at 0x7f5838cfb610>, <rdkit.Chem.rdchem.Mol object at 0x7f5838cf9fc0>, <rdkit.Chem.rdchem.Mol object at 0x7f5838cf89e0>, <rdkit.Chem.rdchem.Mol object at 0x7f5838cf8ba0>]","[<rdkit.Chem.rdchem.Mol object at 0x7f5838cfa730>, <rdkit.Chem.rdchem.Mol object at 0x7f5838cfbdf0>, <rdkit.Chem.rdchem.Mol object at 0x7f5838cf8820>, <rdkit.Chem.rdchem.Mol object at 0x7f5838cfb290>, <rdkit.Chem.rdchem.Mol object at 0x7f5838cfb680>, <rdkit.Chem.rdchem.Mol object at 0x7f5838cfb530>]","[<rdkit.Chem.rdchem.Mol object at 0x7f5838cfb610>, <rdkit.Chem.rdchem.Mol object at 0x7f5838cf9fc0>, <rdkit.Chem.rdchem.Mol object at 0x7f5838cf89e0>, <rdkit.Chem.rdchem.Mol object at 0x7f5838cf8ba0>, '.', <rdkit.Chem.rdchem.Mol object at 0x7f5838cfa730>, <rdkit.Chem.rdchem.Mol object at 0x7f5838cfbdf0>, <rdkit.Chem.rdchem.Mol object at 0x7f5838cf8820>, <rdkit.Chem.rdchem.Mol object at 0x7f5838cfb290>, <rdkit.Chem.rdchem.Mol object at 0x7f5838cfb680>, <rdkit.Chem.rdchem.Mol object at 0x7f5838cfb530>]","[0, 0, 0, 0, 0, 0, 6195, 6196, 6197, 6198, 1, 6199, 6200, 6201, 6202, 6203, 6204]"
P3HT,BT2b,-5.057777777777777,-2.989444444444445,-5.41,-3.56,1.0,CF,15.0,_,150.0,6.08,6.08,0.92,66.0,"[<rdkit.Chem.rdchem.Mol object at 0x7f5838cfa7a0>, <rdkit.Chem.rdchem.Mol object at 0x7f5838cf9f50>, <rdkit.Chem.rdchem.Mol object at 0x7f5838cfb060>, <rdkit.Chem.rdchem.Mol object at 0x7f5838cf9c40>]","[<rdkit.Chem.rdchem.Mol object at 0x7f5838cfb450>, <rdkit.Chem.rdchem.Mol object at 0x7f5838cfa5e0>, <rdkit.Chem.rdchem.Mol object at 0x7f5838cf9070>, <rdkit.Chem.rdchem.Mol object at 0x7f5838cfa030>, <rdkit.Chem.rdchem.Mol object at 0x7f5838cfbca0>]","[<rdkit.Chem.rdchem.Mol object at 0x7f5838cfa7a0>, <rdkit.Chem.rdchem.Mol object at 0x7f5838cf9f50>, <rdkit.Chem.rdchem.Mol object at 0x7f5838cfb060>, <rdkit.Chem.rdchem.Mol object at 0x7f5838cf9c40>, '.', <rdkit.Chem.rdchem.Mol object at 0x7f5838cfb450>, <rdkit.Chem.rdchem.Mol object at 0x7f5838cfa5e0>, <rdkit.Chem.rdchem.Mol object at 0x7f5838cf9070>, <rdkit.Chem.rdchem.Mol object at 0x7f5838cfa030>, <rdkit.Chem.rdchem.Mol object at 0x7f5838cfbca0>]","[0, 0, 0, 0, 0, 0, 0, 6205, 6206, 6207, 6208, 1, 6209, 6210, 6211, 6212, 6213]"
PTB7-Th,IHIC,-5.204782608695651,-3.5391891891891896,-5.45,-3.93,0.667,DCB,20.0,CN,25.0,9.77,9.76,0.754,68.1,"[<rdkit.Chem.rdchem.Mol object at 0x7f5838cf94d0>, <rdkit.Chem.rdchem.Mol object at 0x7f5838cf9a80>, <rdkit.Chem.rdchem.Mol object at 0x7f5838cf9850>, <rdkit.Chem.rdchem.Mol object at 0x7f5838cf99a0>, <rdkit.Chem.rdchem.Mol object at 0x7f5838cf9310>, <rdkit.Chem.rdchem.Mol object at 0x7f5838cf9150>, <rdkit.Chem.rdchem.Mol object at 0x7f5838d043c0>]","[<rdkit.Chem.rdchem.Mol object at 0x7f5838cfa1f0>, <rdkit.Chem.rdchem.Mol object at 0x7f5838d045f0>, <rdkit.Chem.rdchem.Mol object at 0x7f5838cfaab0>, <rdkit.Chem.rdchem.Mol object at 0x7f5838cf8890>, <rdkit.Chem.rdchem.Mol object at 0x7f5838d04430>]","[<rdkit.Chem.rdchem.Mol object at 0x7f5838cf94d0>, <rdkit.Chem.rdchem.Mol object at 0x7f5838cf9a80>, <rdkit.Chem.rdchem.Mol object at 0x7f5838cf9850>, <rdkit.Chem.rdchem.Mol object at 0x7f5838cf99a0>, <rdkit.Chem.rdchem.Mol object at 0x7f5838cf9310>, <rdkit.Chem.rdchem.Mol object at 0x7f5838cf9150>, <rdkit.Chem.rdchem.Mol object at 0x7f5838d043c0>, '.', <rdkit.Chem.rdchem.Mol object at 0x7f5838cfa1f0>, <rdkit.Chem.rdchem.Mol object at 0x7f5838d045f0>, <rdkit.Chem.rdchem.Mol object at 0x7f5838cfaab0>, <rdkit.Chem.rdchem.Mol object at 0x7f5838cf8890>, <rdkit.Chem.rdchem.Mol object at 0x7f5838d04430>]","[0, 0, 0, 0, 6226, 6227, 6228, 6229, 6230, 6231, 6232, 1, 6233, 6234, 6235, 6236, 6237]"
PBDB-T,ITIC,-5.297714285714285,-3.4170000000000003,-5.574146341463415,-3.915,1.0,CB,20.0,DIO,25.0,7.4,7.26,0.88,59.8,"[<rdkit.Chem.rdchem.Mol object at 0x7f5838cfba70>, <rdkit.Chem.rdchem.Mol object at 0x7f5838d050e0>, <rdkit.Chem.rdchem.Mol object at 0x7f5838d04740>, <rdkit.Chem.rdchem.Mol object at 0x7f5838d04f90>, <rdkit.Chem.rdchem.Mol object at 0x7f5838d05620>]","[<rdkit.Chem.rdchem.Mol object at 0x7f5838cf8040>, <rdkit.Chem.rdchem.Mol object at 0x7f5838d04660>, <rdkit.Chem.rdchem.Mol object at 0x7f5838cfb6f0>, <rdkit.Chem.rdchem.Mol object at 0x7f5838d05770>, <rdkit.Chem.rdchem.Mol object at 0x7f5838d04040>]","[<rdkit.Chem.rdchem.Mol object at 0x7f5838cfba70>, <rdkit.Chem.rdchem.Mol object at 0x7f5838d050e0>, <rdkit.Chem.rdchem.Mol object at 0x7f5838d04740>, <rdkit.Chem.rdchem.Mol object at 0x7f5838d04f90>, <rdkit.Chem.rdchem.Mol object at 0x7f5838d05620>, '.', <rdkit.Chem.rdchem.Mol object at 0x7f5838cf8040>, <rdkit.Chem.rdchem.Mol object at 0x7f5838d04660>, <rdkit.Chem.rdchem.Mol object at 0x7f5838cfb6f0>, <rdkit.Chem.rdchem.Mol object at 0x7f5838d05770>, <rdkit.Chem.rdchem.Mol object at 0x7f5838d04040>]","[0, 0, 0, 0, 0, 0, 6238, 6239, 6240, 6241, 6242, 1, 6243, 6244, 6245, 6246, 6247]"
PBDTTT-C-T,IDT-2BM,-5.128,-3.268,-5.586666666666666,-4.083333333333333,1.5,o-DCB,30.0,CN,25.0,4.26,4.26,0.766,55.1,"[<rdkit.Chem.rdchem.Mol object at 0x7f5838cf9bd0>, <rdkit.Chem.rdchem.Mol object at 0x7f5838cfb4c0>, <rdkit.Chem.rdchem.Mol object at 0x7f5838d04190>, <rdkit.Chem.rdchem.Mol object at 0x7f5838d04c80>, <rdkit.Chem.rdchem.Mol object at 0x7f5838d04eb0>]","[<rdkit.Chem.rdchem.Mol object at 0x7f5838cf9380>, <rdkit.Chem.rdchem.Mol object at 0x7f5838cf8970>, <rdkit.Chem.rdchem.Mol object at 0x7f5838d04cf0>, <rdkit.Chem.rdchem.Mol object at 0x7f5838d04dd0>, <rdkit.Chem.rdchem.Mol object at 0x7f5838d04970>]","[<rdkit.Chem.rdchem.Mol object at 0x7f5838cf9bd0>, <rdkit.Chem.rdchem.Mol object at 0x7f5838cfb4c0>, <rdkit.Chem.rdchem.Mol object at 0x7f5838d04190>, <rdkit.Chem.rdchem.Mol object at 0x7f5838d04c80>, <rdkit.Chem.rdchem.Mol object at 0x7f5838d04eb0>, '.', <rdkit.Chem.rdchem.Mol object at 0x7f5838cf9380>, <rdkit.Chem.rdchem.Mol object at 0x7f5838cf8970>, <rdkit.Chem.rdchem.Mol object at 0x7f5838d04cf0>, <rdkit.Chem.rdchem.Mol object at 0x7f5838d04dd0>, <rdkit.Chem.rdchem.Mol object at 0x7f5838d04970>]","[0, 0, 0, 0, 0, 0, 6248, 6249, 6250, 6251, 6252, 1, 6253, 6254, 6255, 6256, 6257]"