Donor,Acceptor,HOMO_D_eV,LUMO_D_eV,HOMO_A_eV,LUMO_A_eV,D_A_ratio_m_m,solvent,total_solids_conc_mg_mL,solvent_additive,annealing_temperature,PCE_percent,calc_PCE_percent,Voc_V,FF_percent,Donor_BRICS,Acceptor_BRICS,DA_pair_BRICS,DA_tokenized_BRICS
PTB7-Th,BTTFIC,-5.204782608695651,-3.5391891891891896,-5.56,-3.95,0.5,o-DCB,30.0,_,130.0,8.47,8.46,0.871,55.0,"[<rdkit.Chem.rdchem.Mol object at 0x7f5838cc4dd0>, <rdkit.Chem.rdchem.Mol object at 0x7f5838cc7f40>, <rdkit.Chem.rdchem.Mol object at 0x7f5838cc77d0>, <rdkit.Chem.rdchem.Mol object at 0x7f5838cc7e60>, <rdkit.Chem.rdchem.Mol object at 0x7f5838cc7d80>, <rdkit.Chem.rdchem.Mol object at 0x7f5838cc7ae0>, <rdkit.Chem.rdchem.Mol object at 0x7f5838cc7c30>]","[<rdkit.Chem.rdchem.Mol object at 0x7f5838cc4cf0>, <rdkit.Chem.rdchem.Mol object at 0x7f5838cc55b0>, <rdkit.Chem.rdchem.Mol object at 0x7f5838cc6ab0>, <rdkit.Chem.rdchem.Mol object at 0x7f5838cc7610>]","[<rdkit.Chem.rdchem.Mol object at 0x7f5838cc4dd0>, <rdkit.Chem.rdchem.Mol object at 0x7f5838cc7f40>, <rdkit.Chem.rdchem.Mol object at 0x7f5838cc77d0>, <rdkit.Chem.rdchem.Mol object at 0x7f5838cc7e60>, <rdkit.Chem.rdchem.Mol object at 0x7f5838cc7d80>, <rdkit.Chem.rdchem.Mol object at 0x7f5838cc7ae0>, <rdkit.Chem.rdchem.Mol object at 0x7f5838cc7c30>, '.', <rdkit.Chem.rdchem.Mol object at 0x7f5838cc4cf0>, <rdkit.Chem.rdchem.Mol object at 0x7f5838cc55b0>, <rdkit.Chem.rdchem.Mol object at 0x7f5838cc6ab0>, <rdkit.Chem.rdchem.Mol object at 0x7f5838cc7610>]","[0, 0, 0, 0, 0, 5495, 5496, 5497, 5498, 5499, 5500, 5501, 1, 5502, 5503, 5504, 5505]"
PM6,IT-4F,-5.529999999999999,-3.555,-5.66875,-4.060416666666667,1.0,CB,10.0,DIO,100.0,13.5,13.52,0.84,72.5,"[<rdkit.Chem.rdchem.Mol object at 0x7f5838cc5d20>, <rdkit.Chem.rdchem.Mol object at 0x7f5838cc7920>, <rdkit.Chem.rdchem.Mol object at 0x7f5838cc7a70>, <rdkit.Chem.rdchem.Mol object at 0x7f5838cc7ed0>, <rdkit.Chem.rdchem.Mol object at 0x7f5838cc4200>, <rdkit.Chem.rdchem.Mol object at 0x7f5838ccc9e0>]","[<rdkit.Chem.rdchem.Mol object at 0x7f5838cc7d10>, <rdkit.Chem.rdchem.Mol object at 0x7f5838cc76f0>, <rdkit.Chem.rdchem.Mol object at 0x7f5838cc7990>, <rdkit.Chem.rdchem.Mol object at 0x7f5838cc6570>, <rdkit.Chem.rdchem.Mol object at 0x7f5838ccc820>]","[<rdkit.Chem.rdchem.Mol object at 0x7f5838cc5d20>, <rdkit.Chem.rdchem.Mol object at 0x7f5838cc7920>, <rdkit.Chem.rdchem.Mol object at 0x7f5838cc7a70>, <rdkit.Chem.rdchem.Mol object at 0x7f5838cc7ed0>, <rdkit.Chem.rdchem.Mol object at 0x7f5838cc4200>, <rdkit.Chem.rdchem.Mol object at 0x7f5838ccc9e0>, '.', <rdkit.Chem.rdchem.Mol object at 0x7f5838cc7d10>, <rdkit.Chem.rdchem.Mol object at 0x7f5838cc76f0>, <rdkit.Chem.rdchem.Mol object at 0x7f5838cc7990>, <rdkit.Chem.rdchem.Mol object at 0x7f5838cc6570>, <rdkit.Chem.rdchem.Mol object at 0x7f5838ccc820>]","[0, 0, 0, 0, 0, 5506, 5507, 5508, 5509, 5510, 5511, 1, 5512, 5513, 5514, 5515, 5516]"
FTAZ,F5IC,-5.43,-3.3200000000000003,-5.82,-4.05,0.667,CF,12.5,DIO,25.0,5.6,5.63,0.704,53.7,"[<rdkit.Chem.rdchem.Mol object at 0x7f5838cc6b90>, <rdkit.Chem.rdchem.Mol object at 0x7f5838cc7290>, <rdkit.Chem.rdchem.Mol object at 0x7f5838cc4a50>, <rdkit.Chem.rdchem.Mol object at 0x7f5838ccc890>, <rdkit.Chem.rdchem.Mol object at 0x7f5838ccceb0>, <rdkit.Chem.rdchem.Mol object at 0x7f5838cccc10>]","[<rdkit.Chem.rdchem.Mol object at 0x7f5838cc6c00>, <rdkit.Chem.rdchem.Mol object at 0x7f5838cccac0>, <rdkit.Chem.rdchem.Mol object at 0x7f5838cc74c0>, <rdkit.Chem.rdchem.Mol object at 0x7f5838cccb30>, <rdkit.Chem.rdchem.Mol object at 0x7f5838cccba0>]","[<rdkit.Chem.rdchem.Mol object at 0x7f5838cc6b90>, <rdkit.Chem.rdchem.Mol object at 0x7f5838cc7290>, <rdkit.Chem.rdchem.Mol object at 0x7f5838cc4a50>, <rdkit.Chem.rdchem.Mol object at 0x7f5838ccc890>, <rdkit.Chem.rdchem.Mol object at 0x7f5838ccceb0>, <rdkit.Chem.rdchem.Mol object at 0x7f5838cccc10>, '.', <rdkit.Chem.rdchem.Mol object at 0x7f5838cc6c00>, <rdkit.Chem.rdchem.Mol object at 0x7f5838cccac0>, <rdkit.Chem.rdchem.Mol object at 0x7f5838cc74c0>, <rdkit.Chem.rdchem.Mol object at 0x7f5838cccb30>, <rdkit.Chem.rdchem.Mol object at 0x7f5838cccba0>]","[0, 0, 0, 0, 0, 5528, 5529, 5530, 5531, 5532, 5533, 1, 5534, 5535, 5536, 5537, 5538]"
FTAZ,F7IC,-5.43,-3.3200000000000003,-5.74,-4.01,0.667,CF,12.5,DIO,25.0,8.2,8.16,0.742,59.7,"[<rdkit.Chem.rdchem.Mol object at 0x7f5838cc4580>, <rdkit.Chem.rdchem.Mol object at 0x7f5838ccd380>, <rdkit.Chem.rdchem.Mol object at 0x7f5838cc6ea0>, <rdkit.Chem.rdchem.Mol object at 0x7f5838ccc5f0>, <rdkit.Chem.rdchem.Mol object at 0x7f5838ccd150>, <rdkit.Chem.rdchem.Mol object at 0x7f5838ccc7b0>]","[<rdkit.Chem.rdchem.Mol object at 0x7f5838ccc900>, <rdkit.Chem.rdchem.Mol object at 0x7f5838ccc6d0>, <rdkit.Chem.rdchem.Mol object at 0x7f5838cc5fc0>, <rdkit.Chem.rdchem.Mol object at 0x7f5838ccc430>, <rdkit.Chem.rdchem.Mol object at 0x7f5838ccc740>]","[<rdkit.Chem.rdchem.Mol object at 0x7f5838cc4580>, <rdkit.Chem.rdchem.Mol object at 0x7f5838ccd380>, <rdkit.Chem.rdchem.Mol object at 0x7f5838cc6ea0>, <rdkit.Chem.rdchem.Mol object at 0x7f5838ccc5f0>, <rdkit.Chem.rdchem.Mol object at 0x7f5838ccd150>, <rdkit.Chem.rdchem.Mol object at 0x7f5838ccc7b0>, '.', <rdkit.Chem.rdchem.Mol object at 0x7f5838ccc900>, <rdkit.Chem.rdchem.Mol object at 0x7f5838ccc6d0>, <rdkit.Chem.rdchem.Mol object at 0x7f5838cc5fc0>, <rdkit.Chem.rdchem.Mol object at 0x7f5838ccc430>, <rdkit.Chem.rdchem.Mol object at 0x7f5838ccc740>]","[0, 0, 0, 0, 0, 5539, 5540, 5541, 5542, 5543, 5544, 1, 5545, 5546, 5547, 5548, 5549]"
FTAZ,F9IC,-5.43,-3.3200000000000003,-5.52,-3.97,0.667,CF,12.5,DIO,25.0,11.7,11.71,0.873,66.4,"[<rdkit.Chem.rdchem.Mol object at 0x7f5838cc7b50>, <rdkit.Chem.rdchem.Mol object at 0x7f5838ccd1c0>, <rdkit.Chem.rdchem.Mol object at 0x7f5838cc5e70>, <rdkit.Chem.rdchem.Mol object at 0x7f5838ccc040>, <rdkit.Chem.rdchem.Mol object at 0x7f5838cccc80>, <rdkit.Chem.rdchem.Mol object at 0x7f5838ccc970>]","[<rdkit.Chem.rdchem.Mol object at 0x7f5838ccd070>, <rdkit.Chem.rdchem.Mol object at 0x7f5838cccf90>, <rdkit.Chem.rdchem.Mol object at 0x7f5838ccc0b0>, <rdkit.Chem.rdchem.Mol object at 0x7f5838ccd460>, <rdkit.Chem.rdchem.Mol object at 0x7f5838ccd690>]","[<rdkit.Chem.rdchem.Mol object at 0x7f5838cc7b50>, <rdkit.Chem.rdchem.Mol object at 0x7f5838ccd1c0>, <rdkit.Chem.rdchem.Mol object at 0x7f5838cc5e70>, <rdkit.Chem.rdchem.Mol object at 0x7f5838ccc040>, <rdkit.Chem.rdchem.Mol object at 0x7f5838cccc80>, <rdkit.Chem.rdchem.Mol object at 0x7f5838ccc970>, '.', <rdkit.Chem.rdchem.Mol object at 0x7f5838ccd070>, <rdkit.Chem.rdchem.Mol object at 0x7f5838cccf90>, <rdkit.Chem.rdchem.Mol object at 0x7f5838ccc0b0>, <rdkit.Chem.rdchem.Mol object at 0x7f5838ccd460>, <rdkit.Chem.rdchem.Mol object at 0x7f5838ccd690>]","[0, 0, 0, 0, 0, 5550, 5551, 5552, 5553, 5554, 5555, 1, 5556, 5557, 5558, 5559, 5560]"
2D-PBTCl,ITIC,-5.45,-3.6,-5.574146341463415,-3.915,1.0,CB,8.0,DIO,25.0,8.81,8.81,0.91,61.32,"[<rdkit.Chem.rdchem.Mol object at 0x7f5838ccfa70>, <rdkit.Chem.rdchem.Mol object at 0x7f5838ccf1b0>, <rdkit.Chem.rdchem.Mol object at 0x7f5838cccdd0>, <rdkit.Chem.rdchem.Mol object at 0x7f5838ccf6f0>, <rdkit.Chem.rdchem.Mol object at 0x7f5838cce110>, <rdkit.Chem.rdchem.Mol object at 0x7f5838ccfed0>, <rdkit.Chem.rdchem.Mol object at 0x7f5838cd8580>]","[<rdkit.Chem.rdchem.Mol object at 0x7f5838ccfb50>, <rdkit.Chem.rdchem.Mol object at 0x7f5838cd86d0>, <rdkit.Chem.rdchem.Mol object at 0x7f5838ccf7d0>, <rdkit.Chem.rdchem.Mol object at 0x7f5838ccf220>, <rdkit.Chem.rdchem.Mol object at 0x7f5838cd87b0>]","[<rdkit.Chem.rdchem.Mol object at 0x7f5838ccfa70>, <rdkit.Chem.rdchem.Mol object at 0x7f5838ccf1b0>, <rdkit.Chem.rdchem.Mol object at 0x7f5838cccdd0>, <rdkit.Chem.rdchem.Mol object at 0x7f5838ccf6f0>, <rdkit.Chem.rdchem.Mol object at 0x7f5838cce110>, <rdkit.Chem.rdchem.Mol object at 0x7f5838ccfed0>, <rdkit.Chem.rdchem.Mol object at 0x7f5838cd8580>, '.', <rdkit.Chem.rdchem.Mol object at 0x7f5838ccfb50>, <rdkit.Chem.rdchem.Mol object at 0x7f5838cd86d0>, <rdkit.Chem.rdchem.Mol object at 0x7f5838ccf7d0>, <rdkit.Chem.rdchem.Mol object at 0x7f5838ccf220>, <rdkit.Chem.rdchem.Mol object at 0x7f5838cd87b0>]","[0, 0, 0, 0, 5654, 5655, 5656, 5657, 5658, 5659, 5660, 1, 5661, 5662, 5663, 5664, 5665]"
2D-PBTCl2,ITIC,-5.43,-3.63,-5.574146341463415,-3.915,1.0,CB,8.0,DIO,25.0,7.38,7.38,0.87,58.43,"[<rdkit.Chem.rdchem.Mol object at 0x7f5838ccc3c0>, <rdkit.Chem.rdchem.Mol object at 0x7f5838cce6c0>, <rdkit.Chem.rdchem.Mol object at 0x7f5838ccf5a0>, <rdkit.Chem.rdchem.Mol object at 0x7f5838ccfd80>, <rdkit.Chem.rdchem.Mol object at 0x7f5838cd8820>, <rdkit.Chem.rdchem.Mol object at 0x7f5838ccf3e0>, <rdkit.Chem.rdchem.Mol object at 0x7f5838cd8190>, <rdkit.Chem.rdchem.Mol object at 0x7f5838cd8ac0>]","[<rdkit.Chem.rdchem.Mol object at 0x7f5838cd8a50>, <rdkit.Chem.rdchem.Mol object at 0x7f5838cd8970>, <rdkit.Chem.rdchem.Mol object at 0x7f5838ccef80>, <rdkit.Chem.rdchem.Mol object at 0x7f5838cd8270>, <rdkit.Chem.rdchem.Mol object at 0x7f5838cd8dd0>]","[<rdkit.Chem.rdchem.Mol object at 0x7f5838ccc3c0>, <rdkit.Chem.rdchem.Mol object at 0x7f5838cce6c0>, <rdkit.Chem.rdchem.Mol object at 0x7f5838ccf5a0>, <rdkit.Chem.rdchem.Mol object at 0x7f5838ccfd80>, <rdkit.Chem.rdchem.Mol object at 0x7f5838cd8820>, <rdkit.Chem.rdchem.Mol object at 0x7f5838ccf3e0>, <rdkit.Chem.rdchem.Mol object at 0x7f5838cd8190>, <rdkit.Chem.rdchem.Mol object at 0x7f5838cd8ac0>, '.', <rdkit.Chem.rdchem.Mol object at 0x7f5838cd8a50>, <rdkit.Chem.rdchem.Mol object at 0x7f5838cd8970>, <rdkit.Chem.rdchem.Mol object at 0x7f5838ccef80>, <rdkit.Chem.rdchem.Mol object at 0x7f5838cd8270>, <rdkit.Chem.rdchem.Mol object at 0x7f5838cd8dd0>]","[0, 0, 0, 5666, 5667, 5668, 5669, 5670, 5671, 5672, 5673, 1, 5674, 5675, 5676, 5677, 5678]"
PTB7-Th,ITIC,-5.204782608695651,-3.5391891891891896,-5.574146341463415,-3.915,1.0,CB,8.0,DIO,25.0,6.91,6.91,0.82,57.09,"[<rdkit.Chem.rdchem.Mol object at 0x7f5838ccf920>, <rdkit.Chem.rdchem.Mol object at 0x7f5838cceb20>, <rdkit.Chem.rdchem.Mol object at 0x7f5838cd8200>, <rdkit.Chem.rdchem.Mol object at 0x7f5838cd8f20>, <rdkit.Chem.rdchem.Mol object at 0x7f5838cd85f0>, <rdkit.Chem.rdchem.Mol object at 0x7f5838cd80b0>, <rdkit.Chem.rdchem.Mol object at 0x7f5838cd8900>]","[<rdkit.Chem.rdchem.Mol object at 0x7f5838cd8430>, <rdkit.Chem.rdchem.Mol object at 0x7f5838cd8cf0>, <rdkit.Chem.rdchem.Mol object at 0x7f5838cd8e40>, <rdkit.Chem.rdchem.Mol object at 0x7f5838cd8510>, <rdkit.Chem.rdchem.Mol object at 0x7f5838cd90e0>]","[<rdkit.Chem.rdchem.Mol object at 0x7f5838ccf920>, <rdkit.Chem.rdchem.Mol object at 0x7f5838cceb20>, <rdkit.Chem.rdchem.Mol object at 0x7f5838cd8200>, <rdkit.Chem.rdchem.Mol object at 0x7f5838cd8f20>, <rdkit.Chem.rdchem.Mol object at 0x7f5838cd85f0>, <rdkit.Chem.rdchem.Mol object at 0x7f5838cd80b0>, <rdkit.Chem.rdchem.Mol object at 0x7f5838cd8900>, '.', <rdkit.Chem.rdchem.Mol object at 0x7f5838cd8430>, <rdkit.Chem.rdchem.Mol object at 0x7f5838cd8cf0>, <rdkit.Chem.rdchem.Mol object at 0x7f5838cd8e40>, <rdkit.Chem.rdchem.Mol object at 0x7f5838cd8510>, <rdkit.Chem.rdchem.Mol object at 0x7f5838cd90e0>]","[0, 0, 0, 0, 5679, 5680, 5681, 5682, 5683, 5684, 5685, 1, 5686, 5687, 5688, 5689, 5690]"
PBClT,ITIC,-5.47,-3.61,-5.574146341463415,-3.915,1.0,CB,8.0,_,25.0,8.46,8.46,1.01,60.05,"[<rdkit.Chem.rdchem.Mol object at 0x7f5838cd9380>, <rdkit.Chem.rdchem.Mol object at 0x7f5838cd94d0>, <rdkit.Chem.rdchem.Mol object at 0x7f5838cd9460>, <rdkit.Chem.rdchem.Mol object at 0x7f5838cd9310>, <rdkit.Chem.rdchem.Mol object at 0x7f5838cd9000>, <rdkit.Chem.rdchem.Mol object at 0x7f5838cd92a0>, <rdkit.Chem.rdchem.Mol object at 0x7f5838cd8350>]","[<rdkit.Chem.rdchem.Mol object at 0x7f5838cd8b30>, <rdkit.Chem.rdchem.Mol object at 0x7f5838cd9230>, <rdkit.Chem.rdchem.Mol object at 0x7f5838cd83c0>, <rdkit.Chem.rdchem.Mol object at 0x7f5838cd8eb0>, <rdkit.Chem.rdchem.Mol object at 0x7f5838cd9620>]","[<rdkit.Chem.rdchem.Mol object at 0x7f5838cd9380>, <rdkit.Chem.rdchem.Mol object at 0x7f5838cd94d0>, <rdkit.Chem.rdchem.Mol object at 0x7f5838cd9460>, <rdkit.Chem.rdchem.Mol object at 0x7f5838cd9310>, <rdkit.Chem.rdchem.Mol object at 0x7f5838cd9000>, <rdkit.Chem.rdchem.Mol object at 0x7f5838cd92a0>, <rdkit.Chem.rdchem.Mol object at 0x7f5838cd8350>, '.', <rdkit.Chem.rdchem.Mol object at 0x7f5838cd8b30>, <rdkit.Chem.rdchem.Mol object at 0x7f5838cd9230>, <rdkit.Chem.rdchem.Mol object at 0x7f5838cd83c0>, <rdkit.Chem.rdchem.Mol object at 0x7f5838cd8eb0>, <rdkit.Chem.rdchem.Mol object at 0x7f5838cd9620>]","[0, 0, 0, 0, 5691, 5692, 5693, 5694, 5695, 5696, 5697, 1, 5698, 5699, 5700, 5701, 5702]"
PBDB-T,BDCPDT-IC,-5.297714285714285,-3.4170000000000003,-5.41,-3.87,1.0,CB,12.0,DIO,25.0,9.33,9.33,0.86,65.52,"[<rdkit.Chem.rdchem.Mol object at 0x7f5838cce7a0>, <rdkit.Chem.rdchem.Mol object at 0x7f5838cd8ba0>, <rdkit.Chem.rdchem.Mol object at 0x7f5838cd8890>, <rdkit.Chem.rdchem.Mol object at 0x7f5838cd9930>, <rdkit.Chem.rdchem.Mol object at 0x7f5838cda3b0>]","[<rdkit.Chem.rdchem.Mol object at 0x7f5838cda6c0>, <rdkit.Chem.rdchem.Mol object at 0x7f5838cd95b0>, <rdkit.Chem.rdchem.Mol object at 0x7f5838cd9af0>, <rdkit.Chem.rdchem.Mol object at 0x7f5838cd9bd0>, <rdkit.Chem.rdchem.Mol object at 0x7f5838cd9150>]","[<rdkit.Chem.rdchem.Mol object at 0x7f5838cce7a0>, <rdkit.Chem.rdchem.Mol object at 0x7f5838cd8ba0>, <rdkit.Chem.rdchem.Mol object at 0x7f5838cd8890>, <rdkit.Chem.rdchem.Mol object at 0x7f5838cd9930>, <rdkit.Chem.rdchem.Mol object at 0x7f5838cda3b0>, '.', <rdkit.Chem.rdchem.Mol object at 0x7f5838cda6c0>, <rdkit.Chem.rdchem.Mol object at 0x7f5838cd95b0>, <rdkit.Chem.rdchem.Mol object at 0x7f5838cd9af0>, <rdkit.Chem.rdchem.Mol object at 0x7f5838cd9bd0>, <rdkit.Chem.rdchem.Mol object at 0x7f5838cd9150>]","[0, 0, 0, 0, 0, 0, 5703, 5704, 5705, 5706, 5707, 1, 5708, 5709, 5710, 5711, 5712]"
PBDB-T,BDCPDT-FIC,-5.297714285714285,-3.4170000000000003,-5.52,-4.0,1.0,CB,12.0,_,25.0,8.12,8.12,0.7,60.67,"[<rdkit.Chem.rdchem.Mol object at 0x7f5838ccf530>, <rdkit.Chem.rdchem.Mol object at 0x7f5838cd9cb0>, <rdkit.Chem.rdchem.Mol object at 0x7f5838cd9ee0>, <rdkit.Chem.rdchem.Mol object at 0x7f5838cd9850>, <rdkit.Chem.rdchem.Mol object at 0x7f5838cda880>]","[<rdkit.Chem.rdchem.Mol object at 0x7f5838cdaab0>, <rdkit.Chem.rdchem.Mol object at 0x7f5838cd8c10>, <rdkit.Chem.rdchem.Mol object at 0x7f5838cd9e00>, <rdkit.Chem.rdchem.Mol object at 0x7f5838cd91c0>, <rdkit.Chem.rdchem.Mol object at 0x7f5838cd8d60>]","[<rdkit.Chem.rdchem.Mol object at 0x7f5838ccf530>, <rdkit.Chem.rdchem.Mol object at 0x7f5838cd9cb0>, <rdkit.Chem.rdchem.Mol object at 0x7f5838cd9ee0>, <rdkit.Chem.rdchem.Mol object at 0x7f5838cd9850>, <rdkit.Chem.rdchem.Mol object at 0x7f5838cda880>, '.', <rdkit.Chem.rdchem.Mol object at 0x7f5838cdaab0>, <rdkit.Chem.rdchem.Mol object at 0x7f5838cd8c10>, <rdkit.Chem.rdchem.Mol object at 0x7f5838cd9e00>, <rdkit.Chem.rdchem.Mol object at 0x7f5838cd91c0>, <rdkit.Chem.rdchem.Mol object at 0x7f5838cd8d60>]","[0, 0, 0, 0, 0, 0, 5713, 5714, 5715, 5716, 5717, 1, 5718, 5719, 5720, 5721, 5722]"
PBFTT,ITIC,-5.47,-3.56,-5.574146341463415,-3.915,0.667,CB,20.0,_,25.0,9.1,9.1,0.94,60.5,"[<rdkit.Chem.rdchem.Mol object at 0x7f5838cd9e70>, <rdkit.Chem.rdchem.Mol object at 0x7f5838cd8740>, <rdkit.Chem.rdchem.Mol object at 0x7f5838cd8660>, <rdkit.Chem.rdchem.Mol object at 0x7f5838cd89e0>, <rdkit.Chem.rdchem.Mol object at 0x7f5838cda7a0>, <rdkit.Chem.rdchem.Mol object at 0x7f5838cda9d0>, <rdkit.Chem.rdchem.Mol object at 0x7f5838cda570>]","[<rdkit.Chem.rdchem.Mol object at 0x7f5838cda5e0>, <rdkit.Chem.rdchem.Mol object at 0x7f5838cd9d90>, <rdkit.Chem.rdchem.Mol object at 0x7f5838cda500>, <rdkit.Chem.rdchem.Mol object at 0x7f5838cd84a0>, <rdkit.Chem.rdchem.Mol object at 0x7f5838cd8040>]","[<rdkit.Chem.rdchem.Mol object at 0x7f5838cd9e70>, <rdkit.Chem.rdchem.Mol object at 0x7f5838cd8740>, <rdkit.Chem.rdchem.Mol object at 0x7f5838cd8660>, <rdkit.Chem.rdchem.Mol object at 0x7f5838cd89e0>, <rdkit.Chem.rdchem.Mol object at 0x7f5838cda7a0>, <rdkit.Chem.rdchem.Mol object at 0x7f5838cda9d0>, <rdkit.Chem.rdchem.Mol object at 0x7f5838cda570>, '.', <rdkit.Chem.rdchem.Mol object at 0x7f5838cda5e0>, <rdkit.Chem.rdchem.Mol object at 0x7f5838cd9d90>, <rdkit.Chem.rdchem.Mol object at 0x7f5838cda500>, <rdkit.Chem.rdchem.Mol object at 0x7f5838cd84a0>, <rdkit.Chem.rdchem.Mol object at 0x7f5838cd8040>]","[0, 0, 0, 0, 5723, 5724, 5725, 5726, 5727, 5728, 5729, 1, 5730, 5731, 5732, 5733, 5734]"
PBDB-O,ITIC,-5.3,-2.82,-5.574146341463415,-3.915,1.0,CB,20.0,DIO,160.0,4.35,4.32,0.846,43.3,"[<rdkit.Chem.rdchem.Mol object at 0x7f5838cda2d0>, <rdkit.Chem.rdchem.Mol object at 0x7f5838cd8c80>, <rdkit.Chem.rdchem.Mol object at 0x7f5838cd9690>, <rdkit.Chem.rdchem.Mol object at 0x7f5838cda260>, <rdkit.Chem.rdchem.Mol object at 0x7f5838cd97e0>, <rdkit.Chem.rdchem.Mol object at 0x7f5838cd8f90>, <rdkit.Chem.rdchem.Mol object at 0x7f5838cda180>]","[<rdkit.Chem.rdchem.Mol object at 0x7f5838cd9070>, <rdkit.Chem.rdchem.Mol object at 0x7f5838cd9b60>, <rdkit.Chem.rdchem.Mol object at 0x7f5838cda650>, <rdkit.Chem.rdchem.Mol object at 0x7f5838cd98c0>, <rdkit.Chem.rdchem.Mol object at 0x7f5838cda110>]","[<rdkit.Chem.rdchem.Mol object at 0x7f5838cda2d0>, <rdkit.Chem.rdchem.Mol object at 0x7f5838cd8c80>, <rdkit.Chem.rdchem.Mol object at 0x7f5838cd9690>, <rdkit.Chem.rdchem.Mol object at 0x7f5838cda260>, <rdkit.Chem.rdchem.Mol object at 0x7f5838cd97e0>, <rdkit.Chem.rdchem.Mol object at 0x7f5838cd8f90>, <rdkit.Chem.rdchem.Mol object at 0x7f5838cda180>, '.', <rdkit.Chem.rdchem.Mol object at 0x7f5838cd9070>, <rdkit.Chem.rdchem.Mol object at 0x7f5838cd9b60>, <rdkit.Chem.rdchem.Mol object at 0x7f5838cda650>, <rdkit.Chem.rdchem.Mol object at 0x7f5838cd98c0>, <rdkit.Chem.rdchem.Mol object at 0x7f5838cda110>]","[0, 0, 0, 0, 5735, 5736, 5737, 5738, 5739, 5740, 5741, 1, 5742, 5743, 5744, 5745, 5746]"
PBDB-T,ITIC,-5.297714285714285,-3.4170000000000003,-5.574146341463415,-3.915,1.0,CB,20.0,DIO,160.0,11.21,11.21,0.899,74.2,"[<rdkit.Chem.rdchem.Mol object at 0x7f5838cdac70>, <rdkit.Chem.rdchem.Mol object at 0x7f5838cda1f0>, <rdkit.Chem.rdchem.Mol object at 0x7f5838cda8f0>, <rdkit.Chem.rdchem.Mol object at 0x7f5838cdadc0>, <rdkit.Chem.rdchem.Mol object at 0x7f5838cdb840>]","[<rdkit.Chem.rdchem.Mol object at 0x7f5838cdba70>, <rdkit.Chem.rdchem.Mol object at 0x7f5838cdaff0>, <rdkit.Chem.rdchem.Mol object at 0x7f5838cda340>, <rdkit.Chem.rdchem.Mol object at 0x7f5838cdaf80>, <rdkit.Chem.rdchem.Mol object at 0x7f5838cda030>]","[<rdkit.Chem.rdchem.Mol object at 0x7f5838cdac70>, <rdkit.Chem.rdchem.Mol object at 0x7f5838cda1f0>, <rdkit.Chem.rdchem.Mol object at 0x7f5838cda8f0>, <rdkit.Chem.rdchem.Mol object at 0x7f5838cdadc0>, <rdkit.Chem.rdchem.Mol object at 0x7f5838cdb840>, '.', <rdkit.Chem.rdchem.Mol object at 0x7f5838cdba70>, <rdkit.Chem.rdchem.Mol object at 0x7f5838cdaff0>, <rdkit.Chem.rdchem.Mol object at 0x7f5838cda340>, <rdkit.Chem.rdchem.Mol object at 0x7f5838cdaf80>, <rdkit.Chem.rdchem.Mol object at 0x7f5838cda030>]","[0, 0, 0, 0, 0, 0, 5747, 5748, 5749, 5750, 5751, 1, 5752, 5753, 5754, 5755, 5756]"