Donor,Acceptor,HOMO_D_eV,LUMO_D_eV,HOMO_A_eV,LUMO_A_eV,D_A_ratio_m_m,solvent,total_solids_conc_mg_mL,solvent_additive,annealing_temperature,PCE_percent,calc_PCE_percent,Voc_V,FF_percent,Donor_BRICS,Acceptor_BRICS,DA_pair_BRICS,DA_tokenized_BRICS
P3HT,NAI-FN-NAI(HD),-5.057777777777777,-2.989444444444445,-6.06,-3.98,1.0,CB,20.0,_,25.0,2.8,2.86,0.88,43.0,"[<rdkit.Chem.rdchem.Mol object at 0x7f5838d6c4a0>, <rdkit.Chem.rdchem.Mol object at 0x7f5838d6c120>, <rdkit.Chem.rdchem.Mol object at 0x7f5838d6d540>, <rdkit.Chem.rdchem.Mol object at 0x7f5838d6e2d0>]","[<rdkit.Chem.rdchem.Mol object at 0x7f5838d6da80>, <rdkit.Chem.rdchem.Mol object at 0x7f5838d6cc80>, <rdkit.Chem.rdchem.Mol object at 0x7f5838d6d770>, <rdkit.Chem.rdchem.Mol object at 0x7f5838d6d2a0>]","[<rdkit.Chem.rdchem.Mol object at 0x7f5838d6c4a0>, <rdkit.Chem.rdchem.Mol object at 0x7f5838d6c120>, <rdkit.Chem.rdchem.Mol object at 0x7f5838d6d540>, <rdkit.Chem.rdchem.Mol object at 0x7f5838d6e2d0>, '.', <rdkit.Chem.rdchem.Mol object at 0x7f5838d6da80>, <rdkit.Chem.rdchem.Mol object at 0x7f5838d6cc80>, <rdkit.Chem.rdchem.Mol object at 0x7f5838d6d770>, <rdkit.Chem.rdchem.Mol object at 0x7f5838d6d2a0>]","[0, 0, 0, 0, 0, 0, 0, 0, 1722, 1723, 1724, 1725, 1, 1726, 1727, 1728, 1729]"
P3HT,NAI-FCN-NAI(BO),-5.057777777777777,-2.989444444444445,-6.14,-4.21,1.0,CB,20.0,_,25.0,0.8,0.74,0.58,39.0,"[<rdkit.Chem.rdchem.Mol object at 0x7f5838d6d9a0>, <rdkit.Chem.rdchem.Mol object at 0x7f5838d6daf0>, <rdkit.Chem.rdchem.Mol object at 0x7f5838d6e490>, <rdkit.Chem.rdchem.Mol object at 0x7f5838d6cdd0>]","[<rdkit.Chem.rdchem.Mol object at 0x7f5838d6c970>, <rdkit.Chem.rdchem.Mol object at 0x7f5838d6e260>, <rdkit.Chem.rdchem.Mol object at 0x7f5838d6e110>, <rdkit.Chem.rdchem.Mol object at 0x7f5838d6d310>, <rdkit.Chem.rdchem.Mol object at 0x7f5838d6dee0>]","[<rdkit.Chem.rdchem.Mol object at 0x7f5838d6d9a0>, <rdkit.Chem.rdchem.Mol object at 0x7f5838d6daf0>, <rdkit.Chem.rdchem.Mol object at 0x7f5838d6e490>, <rdkit.Chem.rdchem.Mol object at 0x7f5838d6cdd0>, '.', <rdkit.Chem.rdchem.Mol object at 0x7f5838d6c970>, <rdkit.Chem.rdchem.Mol object at 0x7f5838d6e260>, <rdkit.Chem.rdchem.Mol object at 0x7f5838d6e110>, <rdkit.Chem.rdchem.Mol object at 0x7f5838d6d310>, <rdkit.Chem.rdchem.Mol object at 0x7f5838d6dee0>]","[0, 0, 0, 0, 0, 0, 0, 1730, 1731, 1732, 1733, 1, 1734, 1735, 1736, 1737, 1738]"
FTAZ,INIC,-5.43,-3.3200000000000003,-5.45,-3.88,0.667,CF,12.5,DIO,25.0,7.7,7.49,0.957,57.9,"[<rdkit.Chem.rdchem.Mol object at 0x7f5838d6cf20>, <rdkit.Chem.rdchem.Mol object at 0x7f5838d6c3c0>, <rdkit.Chem.rdchem.Mol object at 0x7f5838d6d0e0>, <rdkit.Chem.rdchem.Mol object at 0x7f5838d6c040>, <rdkit.Chem.rdchem.Mol object at 0x7f5838d6dbd0>, <rdkit.Chem.rdchem.Mol object at 0x7f5838d6e420>]","[<rdkit.Chem.rdchem.Mol object at 0x7f5838d6cb30>, <rdkit.Chem.rdchem.Mol object at 0x7f5838d6dd90>, <rdkit.Chem.rdchem.Mol object at 0x7f5838d6dfc0>, <rdkit.Chem.rdchem.Mol object at 0x7f5838d6e570>, <rdkit.Chem.rdchem.Mol object at 0x7f5838d6e5e0>]","[<rdkit.Chem.rdchem.Mol object at 0x7f5838d6cf20>, <rdkit.Chem.rdchem.Mol object at 0x7f5838d6c3c0>, <rdkit.Chem.rdchem.Mol object at 0x7f5838d6d0e0>, <rdkit.Chem.rdchem.Mol object at 0x7f5838d6c040>, <rdkit.Chem.rdchem.Mol object at 0x7f5838d6dbd0>, <rdkit.Chem.rdchem.Mol object at 0x7f5838d6e420>, '.', <rdkit.Chem.rdchem.Mol object at 0x7f5838d6cb30>, <rdkit.Chem.rdchem.Mol object at 0x7f5838d6dd90>, <rdkit.Chem.rdchem.Mol object at 0x7f5838d6dfc0>, <rdkit.Chem.rdchem.Mol object at 0x7f5838d6e570>, <rdkit.Chem.rdchem.Mol object at 0x7f5838d6e5e0>]","[0, 0, 0, 0, 0, 1739, 1740, 1741, 1742, 1743, 1744, 1, 1745, 1746, 1747, 1748, 1749]"
FTAZ,INIC1,-5.43,-3.3200000000000003,-5.54,-3.97,0.667,CF,12.5,DIO,25.0,10.1,9.93,0.929,64.3,"[<rdkit.Chem.rdchem.Mol object at 0x7f5838d6e9d0>, <rdkit.Chem.rdchem.Mol object at 0x7f5838d6e500>, <rdkit.Chem.rdchem.Mol object at 0x7f5838d6eab0>, <rdkit.Chem.rdchem.Mol object at 0x7f5838d6e030>, <rdkit.Chem.rdchem.Mol object at 0x7f5838d6df50>, <rdkit.Chem.rdchem.Mol object at 0x7f5838d6e3b0>]","[<rdkit.Chem.rdchem.Mol object at 0x7f5838d6c6d0>, <rdkit.Chem.rdchem.Mol object at 0x7f5838d6e8f0>, <rdkit.Chem.rdchem.Mol object at 0x7f5838d6e960>, <rdkit.Chem.rdchem.Mol object at 0x7f5838d6cc10>, <rdkit.Chem.rdchem.Mol object at 0x7f5838d6ec00>]","[<rdkit.Chem.rdchem.Mol object at 0x7f5838d6e9d0>, <rdkit.Chem.rdchem.Mol object at 0x7f5838d6e500>, <rdkit.Chem.rdchem.Mol object at 0x7f5838d6eab0>, <rdkit.Chem.rdchem.Mol object at 0x7f5838d6e030>, <rdkit.Chem.rdchem.Mol object at 0x7f5838d6df50>, <rdkit.Chem.rdchem.Mol object at 0x7f5838d6e3b0>, '.', <rdkit.Chem.rdchem.Mol object at 0x7f5838d6c6d0>, <rdkit.Chem.rdchem.Mol object at 0x7f5838d6e8f0>, <rdkit.Chem.rdchem.Mol object at 0x7f5838d6e960>, <rdkit.Chem.rdchem.Mol object at 0x7f5838d6cc10>, <rdkit.Chem.rdchem.Mol object at 0x7f5838d6ec00>]","[0, 0, 0, 0, 0, 1750, 1751, 1752, 1753, 1754, 1755, 1, 1756, 1757, 1758, 1759, 1760]"
FTAZ,INIC2,-5.43,-3.3200000000000003,-5.52,-3.98,0.667,CF,12.5,DIO,25.0,10.8,10.59,0.903,66.8,"[<rdkit.Chem.rdchem.Mol object at 0x7f5838d6eea0>, <rdkit.Chem.rdchem.Mol object at 0x7f5838d6e880>, <rdkit.Chem.rdchem.Mol object at 0x7f5838d6ef80>, <rdkit.Chem.rdchem.Mol object at 0x7f5838d6eb90>, <rdkit.Chem.rdchem.Mol object at 0x7f5838d6d380>, <rdkit.Chem.rdchem.Mol object at 0x7f5838d6ceb0>]","[<rdkit.Chem.rdchem.Mol object at 0x7f5838d6e730>, <rdkit.Chem.rdchem.Mol object at 0x7f5838d6edc0>, <rdkit.Chem.rdchem.Mol object at 0x7f5838d6ee30>, <rdkit.Chem.rdchem.Mol object at 0x7f5838d6ea40>, <rdkit.Chem.rdchem.Mol object at 0x7f5838d6f0d0>]","[<rdkit.Chem.rdchem.Mol object at 0x7f5838d6eea0>, <rdkit.Chem.rdchem.Mol object at 0x7f5838d6e880>, <rdkit.Chem.rdchem.Mol object at 0x7f5838d6ef80>, <rdkit.Chem.rdchem.Mol object at 0x7f5838d6eb90>, <rdkit.Chem.rdchem.Mol object at 0x7f5838d6d380>, <rdkit.Chem.rdchem.Mol object at 0x7f5838d6ceb0>, '.', <rdkit.Chem.rdchem.Mol object at 0x7f5838d6e730>, <rdkit.Chem.rdchem.Mol object at 0x7f5838d6edc0>, <rdkit.Chem.rdchem.Mol object at 0x7f5838d6ee30>, <rdkit.Chem.rdchem.Mol object at 0x7f5838d6ea40>, <rdkit.Chem.rdchem.Mol object at 0x7f5838d6f0d0>]","[0, 0, 0, 0, 0, 1761, 1762, 1763, 1764, 1765, 1766, 1, 1767, 1768, 1769, 1770, 1771]"
PTB7-Th,F6IC,-5.204782608695651,-3.5391891891891896,-5.66,-4.02,0.588,CF,10.0,DPE,25.0,7.1,7.07,0.611,64.0,"[<rdkit.Chem.rdchem.Mol object at 0x7f5838d6f920>, <rdkit.Chem.rdchem.Mol object at 0x7f5838d6f6f0>, <rdkit.Chem.rdchem.Mol object at 0x7f5838d6f7d0>, <rdkit.Chem.rdchem.Mol object at 0x7f5838d6f760>, <rdkit.Chem.rdchem.Mol object at 0x7f5838d6e340>, <rdkit.Chem.rdchem.Mol object at 0x7f5838d6f610>, <rdkit.Chem.rdchem.Mol object at 0x7f5838d6e810>]","[<rdkit.Chem.rdchem.Mol object at 0x7f5838d6e1f0>, <rdkit.Chem.rdchem.Mol object at 0x7f5838d6f840>, <rdkit.Chem.rdchem.Mol object at 0x7f5838d6e6c0>, <rdkit.Chem.rdchem.Mol object at 0x7f5838d6f3e0>, <rdkit.Chem.rdchem.Mol object at 0x7f5838d6fae0>]","[<rdkit.Chem.rdchem.Mol object at 0x7f5838d6f920>, <rdkit.Chem.rdchem.Mol object at 0x7f5838d6f6f0>, <rdkit.Chem.rdchem.Mol object at 0x7f5838d6f7d0>, <rdkit.Chem.rdchem.Mol object at 0x7f5838d6f760>, <rdkit.Chem.rdchem.Mol object at 0x7f5838d6e340>, <rdkit.Chem.rdchem.Mol object at 0x7f5838d6f610>, <rdkit.Chem.rdchem.Mol object at 0x7f5838d6e810>, '.', <rdkit.Chem.rdchem.Mol object at 0x7f5838d6e1f0>, <rdkit.Chem.rdchem.Mol object at 0x7f5838d6f840>, <rdkit.Chem.rdchem.Mol object at 0x7f5838d6e6c0>, <rdkit.Chem.rdchem.Mol object at 0x7f5838d6f3e0>, <rdkit.Chem.rdchem.Mol object at 0x7f5838d6fae0>]","[0, 0, 0, 0, 1783, 1784, 1785, 1786, 1787, 1788, 1789, 1, 1790, 1791, 1792, 1793, 1794]"
PTB7-Th,F8IC,-5.204782608695651,-3.5391891891891896,-5.43,-4.0,0.588,CF,10.0,DPE,25.0,10.9,10.87,0.64,67.6,"[<rdkit.Chem.rdchem.Mol object at 0x7f5838d6fe60>, <rdkit.Chem.rdchem.Mol object at 0x7f5838d6fc30>, <rdkit.Chem.rdchem.Mol object at 0x7f5838d6fd10>, <rdkit.Chem.rdchem.Mol object at 0x7f5838d6fca0>, <rdkit.Chem.rdchem.Mol object at 0x7f5838d6e7a0>, <rdkit.Chem.rdchem.Mol object at 0x7f5838d6fb50>, <rdkit.Chem.rdchem.Mol object at 0x7f5838d6f8b0>]","[<rdkit.Chem.rdchem.Mol object at 0x7f5838d6f1b0>, <rdkit.Chem.rdchem.Mol object at 0x7f5838d6fd80>, <rdkit.Chem.rdchem.Mol object at 0x7f5838d6f680>, <rdkit.Chem.rdchem.Mol object at 0x7f5838d6fa00>, <rdkit.Chem.rdchem.Mol object at 0x7f5838d882e0>]","[<rdkit.Chem.rdchem.Mol object at 0x7f5838d6fe60>, <rdkit.Chem.rdchem.Mol object at 0x7f5838d6fc30>, <rdkit.Chem.rdchem.Mol object at 0x7f5838d6fd10>, <rdkit.Chem.rdchem.Mol object at 0x7f5838d6fca0>, <rdkit.Chem.rdchem.Mol object at 0x7f5838d6e7a0>, <rdkit.Chem.rdchem.Mol object at 0x7f5838d6fb50>, <rdkit.Chem.rdchem.Mol object at 0x7f5838d6f8b0>, '.', <rdkit.Chem.rdchem.Mol object at 0x7f5838d6f1b0>, <rdkit.Chem.rdchem.Mol object at 0x7f5838d6fd80>, <rdkit.Chem.rdchem.Mol object at 0x7f5838d6f680>, <rdkit.Chem.rdchem.Mol object at 0x7f5838d6fa00>, <rdkit.Chem.rdchem.Mol object at 0x7f5838d882e0>]","[0, 0, 0, 0, 1795, 1796, 1797, 1798, 1799, 1800, 1801, 1, 1802, 1803, 1804, 1805, 1806]"
PTB7-Th,F10IC,-5.204782608695651,-3.5391891891891896,-5.26,-3.96,0.588,CF,10.0,DPE,25.0,10.2,10.16,0.73,66.8,"[<rdkit.Chem.rdchem.Mol object at 0x7f5838d6c580>, <rdkit.Chem.rdchem.Mol object at 0x7f5838d6fa70>, <rdkit.Chem.rdchem.Mol object at 0x7f5838d6ff40>, <rdkit.Chem.rdchem.Mol object at 0x7f5838d6db60>, <rdkit.Chem.rdchem.Mol object at 0x7f5838d6c200>, <rdkit.Chem.rdchem.Mol object at 0x7f5838d6f220>, <rdkit.Chem.rdchem.Mol object at 0x7f5838d880b0>]","[<rdkit.Chem.rdchem.Mol object at 0x7f5838d6ece0>, <rdkit.Chem.rdchem.Mol object at 0x7f5838d88190>, <rdkit.Chem.rdchem.Mol object at 0x7f5838d6e650>, <rdkit.Chem.rdchem.Mol object at 0x7f5838d6eff0>, <rdkit.Chem.rdchem.Mol object at 0x7f5838d88820>]","[<rdkit.Chem.rdchem.Mol object at 0x7f5838d6c580>, <rdkit.Chem.rdchem.Mol object at 0x7f5838d6fa70>, <rdkit.Chem.rdchem.Mol object at 0x7f5838d6ff40>, <rdkit.Chem.rdchem.Mol object at 0x7f5838d6db60>, <rdkit.Chem.rdchem.Mol object at 0x7f5838d6c200>, <rdkit.Chem.rdchem.Mol object at 0x7f5838d6f220>, <rdkit.Chem.rdchem.Mol object at 0x7f5838d880b0>, '.', <rdkit.Chem.rdchem.Mol object at 0x7f5838d6ece0>, <rdkit.Chem.rdchem.Mol object at 0x7f5838d88190>, <rdkit.Chem.rdchem.Mol object at 0x7f5838d6e650>, <rdkit.Chem.rdchem.Mol object at 0x7f5838d6eff0>, <rdkit.Chem.rdchem.Mol object at 0x7f5838d88820>]","[0, 0, 0, 0, 1807, 1808, 1809, 1810, 1811, 1812, 1813, 1, 1814, 1815, 1816, 1817, 1818]"
PBDTTT-C-T,DC-IDT2T,-5.128,-3.268,-5.43,-3.85,1.2,o-DCB:CF (6.667:1),20.0,_,25.0,3.93,3.92,0.9,52.3,"[<rdkit.Chem.rdchem.Mol object at 0x7f5838d6d000>, <rdkit.Chem.rdchem.Mol object at 0x7f5838d6e0a0>, <rdkit.Chem.rdchem.Mol object at 0x7f5838d6dcb0>, <rdkit.Chem.rdchem.Mol object at 0x7f5838d6fdf0>, <rdkit.Chem.rdchem.Mol object at 0x7f5838d88890>]","[<rdkit.Chem.rdchem.Mol object at 0x7f5838d6c900>, <rdkit.Chem.rdchem.Mol object at 0x7f5838d889e0>, <rdkit.Chem.rdchem.Mol object at 0x7f5838d6f4c0>, <rdkit.Chem.rdchem.Mol object at 0x7f5838d88200>, <rdkit.Chem.rdchem.Mol object at 0x7f5838d88d60>, <rdkit.Chem.rdchem.Mol object at 0x7f5838d88740>]","[<rdkit.Chem.rdchem.Mol object at 0x7f5838d6d000>, <rdkit.Chem.rdchem.Mol object at 0x7f5838d6e0a0>, <rdkit.Chem.rdchem.Mol object at 0x7f5838d6dcb0>, <rdkit.Chem.rdchem.Mol object at 0x7f5838d6fdf0>, <rdkit.Chem.rdchem.Mol object at 0x7f5838d88890>, '.', <rdkit.Chem.rdchem.Mol object at 0x7f5838d6c900>, <rdkit.Chem.rdchem.Mol object at 0x7f5838d889e0>, <rdkit.Chem.rdchem.Mol object at 0x7f5838d6f4c0>, <rdkit.Chem.rdchem.Mol object at 0x7f5838d88200>, <rdkit.Chem.rdchem.Mol object at 0x7f5838d88d60>, <rdkit.Chem.rdchem.Mol object at 0x7f5838d88740>]","[0, 0, 0, 0, 0, 1819, 1820, 1821, 1822, 1823, 1, 1824, 1825, 1826, 1827, 1828, 1829]"
Pff4TBT-2DT,FBR,-5.34,-3.7,-5.786666666666666,-3.673333333333333,1.0,CB,20.0,_,25.0,7.8,7.86,1.12,61.0,"[<rdkit.Chem.rdchem.Mol object at 0x7f5838d6fed0>, <rdkit.Chem.rdchem.Mol object at 0x7f5838d88c80>, <rdkit.Chem.rdchem.Mol object at 0x7f5838d88dd0>, <rdkit.Chem.rdchem.Mol object at 0x7f5838d88c10>, <rdkit.Chem.rdchem.Mol object at 0x7f5838d885f0>, <rdkit.Chem.rdchem.Mol object at 0x7f5838d88ac0>]","[<rdkit.Chem.rdchem.Mol object at 0x7f5838d6f990>, <rdkit.Chem.rdchem.Mol object at 0x7f5838d88120>, <rdkit.Chem.rdchem.Mol object at 0x7f5838d88eb0>, <rdkit.Chem.rdchem.Mol object at 0x7f5838d884a0>, <rdkit.Chem.rdchem.Mol object at 0x7f5838d88b30>]","[<rdkit.Chem.rdchem.Mol object at 0x7f5838d6fed0>, <rdkit.Chem.rdchem.Mol object at 0x7f5838d88c80>, <rdkit.Chem.rdchem.Mol object at 0x7f5838d88dd0>, <rdkit.Chem.rdchem.Mol object at 0x7f5838d88c10>, <rdkit.Chem.rdchem.Mol object at 0x7f5838d885f0>, <rdkit.Chem.rdchem.Mol object at 0x7f5838d88ac0>, '.', <rdkit.Chem.rdchem.Mol object at 0x7f5838d6f990>, <rdkit.Chem.rdchem.Mol object at 0x7f5838d88120>, <rdkit.Chem.rdchem.Mol object at 0x7f5838d88eb0>, <rdkit.Chem.rdchem.Mol object at 0x7f5838d884a0>, <rdkit.Chem.rdchem.Mol object at 0x7f5838d88b30>]","[0, 0, 0, 0, 0, 1830, 1831, 1832, 1833, 1834, 1835, 1, 1836, 1837, 1838, 1839, 1840]"
Pff4TBT-2DT,FTTB,-5.34,-3.7,-5.65,-3.62,1.0,CB,20.0,_,25.0,5.0,4.87,1.05,45.0,"[<rdkit.Chem.rdchem.Mol object at 0x7f5838d6f530>, <rdkit.Chem.rdchem.Mol object at 0x7f5838d88580>, <rdkit.Chem.rdchem.Mol object at 0x7f5838d88a50>, <rdkit.Chem.rdchem.Mol object at 0x7f5838d89000>, <rdkit.Chem.rdchem.Mol object at 0x7f5838d88660>, <rdkit.Chem.rdchem.Mol object at 0x7f5838d89070>]","[<rdkit.Chem.rdchem.Mol object at 0x7f5838d89380>, <rdkit.Chem.rdchem.Mol object at 0x7f5838d89150>, <rdkit.Chem.rdchem.Mol object at 0x7f5838d88900>, <rdkit.Chem.rdchem.Mol object at 0x7f5838d88cf0>, <rdkit.Chem.rdchem.Mol object at 0x7f5838d88f90>]","[<rdkit.Chem.rdchem.Mol object at 0x7f5838d6f530>, <rdkit.Chem.rdchem.Mol object at 0x7f5838d88580>, <rdkit.Chem.rdchem.Mol object at 0x7f5838d88a50>, <rdkit.Chem.rdchem.Mol object at 0x7f5838d89000>, <rdkit.Chem.rdchem.Mol object at 0x7f5838d88660>, <rdkit.Chem.rdchem.Mol object at 0x7f5838d89070>, '.', <rdkit.Chem.rdchem.Mol object at 0x7f5838d89380>, <rdkit.Chem.rdchem.Mol object at 0x7f5838d89150>, <rdkit.Chem.rdchem.Mol object at 0x7f5838d88900>, <rdkit.Chem.rdchem.Mol object at 0x7f5838d88cf0>, <rdkit.Chem.rdchem.Mol object at 0x7f5838d88f90>]","[0, 0, 0, 0, 0, 1841, 1842, 1843, 1844, 1845, 1846, 1, 1847, 1848, 1849, 1850, 1851]"
Pff4TBT-2DT,IDFBR,-5.34,-3.7,-5.75,-3.7,1.0,CB,20.0,_,25.0,1.75,1.81,1.08,38.0,"[<rdkit.Chem.rdchem.Mol object at 0x7f5838d6fbc0>, <rdkit.Chem.rdchem.Mol object at 0x7f5838d890e0>, <rdkit.Chem.rdchem.Mol object at 0x7f5838d88510>, <rdkit.Chem.rdchem.Mol object at 0x7f5838d89460>, <rdkit.Chem.rdchem.Mol object at 0x7f5838d89230>, <rdkit.Chem.rdchem.Mol object at 0x7f5838d894d0>]","[<rdkit.Chem.rdchem.Mol object at 0x7f5838d89690>, <rdkit.Chem.rdchem.Mol object at 0x7f5838d89540>, <rdkit.Chem.rdchem.Mol object at 0x7f5838d895b0>, <rdkit.Chem.rdchem.Mol object at 0x7f5838d886d0>, <rdkit.Chem.rdchem.Mol object at 0x7f5838d88ba0>]","[<rdkit.Chem.rdchem.Mol object at 0x7f5838d6fbc0>, <rdkit.Chem.rdchem.Mol object at 0x7f5838d890e0>, <rdkit.Chem.rdchem.Mol object at 0x7f5838d88510>, <rdkit.Chem.rdchem.Mol object at 0x7f5838d89460>, <rdkit.Chem.rdchem.Mol object at 0x7f5838d89230>, <rdkit.Chem.rdchem.Mol object at 0x7f5838d894d0>, '.', <rdkit.Chem.rdchem.Mol object at 0x7f5838d89690>, <rdkit.Chem.rdchem.Mol object at 0x7f5838d89540>, <rdkit.Chem.rdchem.Mol object at 0x7f5838d895b0>, <rdkit.Chem.rdchem.Mol object at 0x7f5838d886d0>, <rdkit.Chem.rdchem.Mol object at 0x7f5838d88ba0>]","[0, 0, 0, 0, 0, 1852, 1853, 1854, 1855, 1856, 1857, 1, 1858, 1859, 1860, 1861, 1862]"
J71,TTz1,-5.353333333333333,-3.4318181818181825,-5.59,-3.66,0.5,CF,15.0,DIO,25.0,8.77,8.77,0.9,63.18,"[<rdkit.Chem.rdchem.Mol object at 0x7f5838d89930>, <rdkit.Chem.rdchem.Mol object at 0x7f5838d887b0>, <rdkit.Chem.rdchem.Mol object at 0x7f5838d89af0>, <rdkit.Chem.rdchem.Mol object at 0x7f5838d89e00>, <rdkit.Chem.rdchem.Mol object at 0x7f5838d89ee0>, <rdkit.Chem.rdchem.Mol object at 0x7f5838d8a490>]","[<rdkit.Chem.rdchem.Mol object at 0x7f5838d8a260>, <rdkit.Chem.rdchem.Mol object at 0x7f5838d8a340>, <rdkit.Chem.rdchem.Mol object at 0x7f5838d89fc0>, <rdkit.Chem.rdchem.Mol object at 0x7f5838d89b60>, <rdkit.Chem.rdchem.Mol object at 0x7f5838d8a110>, <rdkit.Chem.rdchem.Mol object at 0x7f5838d89310>, <rdkit.Chem.rdchem.Mol object at 0x7f5838d88270>]","[<rdkit.Chem.rdchem.Mol object at 0x7f5838d89930>, <rdkit.Chem.rdchem.Mol object at 0x7f5838d887b0>, <rdkit.Chem.rdchem.Mol object at 0x7f5838d89af0>, <rdkit.Chem.rdchem.Mol object at 0x7f5838d89e00>, <rdkit.Chem.rdchem.Mol object at 0x7f5838d89ee0>, <rdkit.Chem.rdchem.Mol object at 0x7f5838d8a490>, '.', <rdkit.Chem.rdchem.Mol object at 0x7f5838d8a260>, <rdkit.Chem.rdchem.Mol object at 0x7f5838d8a340>, <rdkit.Chem.rdchem.Mol object at 0x7f5838d89fc0>, <rdkit.Chem.rdchem.Mol object at 0x7f5838d89b60>, <rdkit.Chem.rdchem.Mol object at 0x7f5838d8a110>, <rdkit.Chem.rdchem.Mol object at 0x7f5838d89310>, <rdkit.Chem.rdchem.Mol object at 0x7f5838d88270>]","[0, 0, 0, 1874, 1875, 1876, 1877, 1878, 1879, 1, 1880, 1881, 1882, 1883, 1884, 1885, 1886]"
J71,TTz2,-5.353333333333333,-3.4318181818181825,-5.45,-3.5,0.5,CF,15.0,DIO,25.0,6.3,6.3,0.92,53.73,"[<rdkit.Chem.rdchem.Mol object at 0x7f5838d8a5e0>, <rdkit.Chem.rdchem.Mol object at 0x7f5838d89e70>, <rdkit.Chem.rdchem.Mol object at 0x7f5838d897e0>, <rdkit.Chem.rdchem.Mol object at 0x7f5838d89bd0>, <rdkit.Chem.rdchem.Mol object at 0x7f5838d8a500>, <rdkit.Chem.rdchem.Mol object at 0x7f5838d8aa40>]","[<rdkit.Chem.rdchem.Mol object at 0x7f5838d8a810>, <rdkit.Chem.rdchem.Mol object at 0x7f5838d891c0>, <rdkit.Chem.rdchem.Mol object at 0x7f5838d8a570>, <rdkit.Chem.rdchem.Mol object at 0x7f5838d89620>, <rdkit.Chem.rdchem.Mol object at 0x7f5838d8a3b0>, <rdkit.Chem.rdchem.Mol object at 0x7f5838d8a2d0>]","[<rdkit.Chem.rdchem.Mol object at 0x7f5838d8a5e0>, <rdkit.Chem.rdchem.Mol object at 0x7f5838d89e70>, <rdkit.Chem.rdchem.Mol object at 0x7f5838d897e0>, <rdkit.Chem.rdchem.Mol object at 0x7f5838d89bd0>, <rdkit.Chem.rdchem.Mol object at 0x7f5838d8a500>, <rdkit.Chem.rdchem.Mol object at 0x7f5838d8aa40>, '.', <rdkit.Chem.rdchem.Mol object at 0x7f5838d8a810>, <rdkit.Chem.rdchem.Mol object at 0x7f5838d891c0>, <rdkit.Chem.rdchem.Mol object at 0x7f5838d8a570>, <rdkit.Chem.rdchem.Mol object at 0x7f5838d89620>, <rdkit.Chem.rdchem.Mol object at 0x7f5838d8a3b0>, <rdkit.Chem.rdchem.Mol object at 0x7f5838d8a2d0>]","[0, 0, 0, 0, 1887, 1888, 1889, 1890, 1891, 1892, 1, 1893, 1894, 1895, 1896, 1897, 1898]"
PBDB-T,FTIC-C8C6,-5.297714285714285,-3.4170000000000003,-5.62,-3.83,1.0,DCB,8.0,DIO,25.0,9.91,9.99,0.92,67.46,"[<rdkit.Chem.rdchem.Mol object at 0x7f5838d88f20>, <rdkit.Chem.rdchem.Mol object at 0x7f5838d8a030>, <rdkit.Chem.rdchem.Mol object at 0x7f5838d8a730>, <rdkit.Chem.rdchem.Mol object at 0x7f5838d8adc0>, <rdkit.Chem.rdchem.Mol object at 0x7f5838d8b7d0>]","[<rdkit.Chem.rdchem.Mol object at 0x7f5838d8ba00>, <rdkit.Chem.rdchem.Mol object at 0x7f5838d8af80>, <rdkit.Chem.rdchem.Mol object at 0x7f5838d8aab0>, <rdkit.Chem.rdchem.Mol object at 0x7f5838d8b290>]","[<rdkit.Chem.rdchem.Mol object at 0x7f5838d88f20>, <rdkit.Chem.rdchem.Mol object at 0x7f5838d8a030>, <rdkit.Chem.rdchem.Mol object at 0x7f5838d8a730>, <rdkit.Chem.rdchem.Mol object at 0x7f5838d8adc0>, <rdkit.Chem.rdchem.Mol object at 0x7f5838d8b7d0>, '.', <rdkit.Chem.rdchem.Mol object at 0x7f5838d8ba00>, <rdkit.Chem.rdchem.Mol object at 0x7f5838d8af80>, <rdkit.Chem.rdchem.Mol object at 0x7f5838d8aab0>, <rdkit.Chem.rdchem.Mol object at 0x7f5838d8b290>]","[0, 0, 0, 0, 0, 0, 0, 1899, 1900, 1901, 1902, 1903, 1, 1904, 1905, 1906, 1907]"