Donor,Acceptor,HOMO_D_eV,LUMO_D_eV,HOMO_A_eV,LUMO_A_eV,D_A_ratio_m_m,solvent,total_solids_conc_mg_mL,solvent_additive,annealing_temperature,PCE_percent,calc_PCE_percent,Voc_V,Jsc_mA_cm_pow_neg2,FF_percent,Donor_BRICS,Acceptor_BRICS,DA_pair_BRICS,DA_tokenized_BRICS
PBDT-TT,6TIC,-5.23,-3.34,-5.33,-3.885,0.667,DCB,25.0,_,25.0,9.46,9.46,0.812,19.1,61.0,"['[3*]O[3*]', '[4*]CC(CC)CCCC', '[1*]C([6*])=O', '[8*]CC(CC)CCCC', '[14*]c1ccc(C)s1', '[14*]c1ccc([14*])s1', '[14*]c1sc2c([16*])c([14*])sc2c1[16*]', '[14*]c1cc2c([16*])c3sc(C)cc3c([16*])c2s1']","['[7*]C(C#N)C#N', '[7*]C1C(=O)c2ccccc2C1[7*]', '[7*]C[8*]', '[8*]CCCCCC', '[14*]c1cc2sc3c(c2s1)C(c1ccc([16*])cc1)(c1ccc([16*])cc1)c1c-3sc2c3c(sc12)-c1sc2cc([14*])sc2c1C3(c1ccc([16*])cc1)c1ccc([16*])cc1']","['[3*]O[3*]', '[4*]CC(CC)CCCC', '[1*]C([6*])=O', '[8*]CC(CC)CCCC', '[14*]c1ccc(C)s1', '[14*]c1ccc([14*])s1', '[14*]c1sc2c([16*])c([14*])sc2c1[16*]', '[14*]c1cc2c([16*])c3sc(C)cc3c([16*])c2s1', '.', '[7*]C(C#N)C#N', '[7*]C1C(=O)c2ccccc2C1[7*]', '[7*]C[8*]', '[8*]CCCCCC', '[14*]c1cc2sc3c(c2s1)C(c1ccc([16*])cc1)(c1ccc([16*])cc1)c1c-3sc2c3c(sc12)-c1sc2cc([14*])sc2c1C3(c1ccc([16*])cc1)c1ccc([16*])cc1']","[0, 0, 0, 2, 3, 4, 5, 6, 7, 8, 9, 1, 10, 11, 12, 13, 14]"
PBDT-TT,ITIC,-5.23,-3.34,-5.574146341463415,-3.915,0.667,DCB,25.0,_,25.0,8.72,8.72,0.849,15.8,65.0,"['[3*]O[3*]', '[4*]CC(CC)CCCC', '[1*]C([6*])=O', '[8*]CC(CC)CCCC', '[14*]c1ccc(C)s1', '[14*]c1ccc([14*])s1', '[14*]c1sc2c([16*])c([14*])sc2c1[16*]', '[14*]c1cc2c([16*])c3sc(C)cc3c([16*])c2s1']","['[7*]C(C#N)C#N', '[7*]C1C(=O)c2ccccc2C1[7*]', '[7*]C[8*]', '[8*]CCCCCC', '[14*]c1cc2sc3c(c2s1)C(c1ccc([16*])cc1)(c1ccc([16*])cc1)c1cc2c(cc1-3)C(c1ccc([16*])cc1)(c1ccc([16*])cc1)c1c-2sc2cc([14*])sc12']","['[3*]O[3*]', '[4*]CC(CC)CCCC', '[1*]C([6*])=O', '[8*]CC(CC)CCCC', '[14*]c1ccc(C)s1', '[14*]c1ccc([14*])s1', '[14*]c1sc2c([16*])c([14*])sc2c1[16*]', '[14*]c1cc2c([16*])c3sc(C)cc3c([16*])c2s1', '.', '[7*]C(C#N)C#N', '[7*]C1C(=O)c2ccccc2C1[7*]', '[7*]C[8*]', '[8*]CCCCCC', '[14*]c1cc2sc3c(c2s1)C(c1ccc([16*])cc1)(c1ccc([16*])cc1)c1cc2c(cc1-3)C(c1ccc([16*])cc1)(c1ccc([16*])cc1)c1c-2sc2cc([14*])sc12']","[0, 0, 0, 2, 3, 4, 5, 6, 7, 8, 9, 1, 10, 11, 12, 13, 15]"
J52-F,BTA13,-5.29,-3.38,-5.34,-3.62,1.0,CF,12.0,CN,150.0,8.36,8.36,1.18,11.55,61.34,"['[8*]CC(CCCCCC)CCCCCCCC', '[8*]CC(CC)CCCC', '[14*]c1cc(F)c([14*])s1', '[14*]c1ccc(C)s1', '[14*]c1ccc([14*])s1', '[9*]n1nc2c([16*])c(F)c(F)c([16*])c2n1', '[14*]c1cc2c([16*])c3sc(C)cc3c([16*])c2s1']","['[8*]CCCCCCCC', '[8*]CC', '[8*]CCCCCC', '[9*]n1nc2c([16*])ccc(/C=c3/sc(=C(C#N)C#N)n([9*])c3=O)c2n1', '[14*]c1cc2sc3c(c2s1)C(c1ccc([16*])cc1)(c1ccc([16*])cc1)c1cc2c(cc1-3)C(c1ccc([16*])cc1)(c1ccc([16*])cc1)c1c-2sc2cc([14*])sc12']","['[8*]CC(CCCCCC)CCCCCCCC', '[8*]CC(CC)CCCC', '[14*]c1cc(F)c([14*])s1', '[14*]c1ccc(C)s1', '[14*]c1ccc([14*])s1', '[9*]n1nc2c([16*])c(F)c(F)c([16*])c2n1', '[14*]c1cc2c([16*])c3sc(C)cc3c([16*])c2s1', '.', '[8*]CCCCCCCC', '[8*]CC', '[8*]CCCCCC', '[9*]n1nc2c([16*])ccc(/C=c3/sc(=C(C#N)C#N)n([9*])c3=O)c2n1', '[14*]c1cc2sc3c(c2s1)C(c1ccc([16*])cc1)(c1ccc([16*])cc1)c1cc2c(cc1-3)C(c1ccc([16*])cc1)(c1ccc([16*])cc1)c1c-2sc2cc([14*])sc12']","[0, 0, 0, 0, 17, 5, 24, 6, 7, 19, 9, 1, 21, 22, 13, 23, 15]"
J52-FS,BTA13,-5.32,-3.39,-5.34,-3.62,1.0,CF,12.0,CN,150.0,3.84,3.84,1.24,6.74,45.96,"['[4*]CC(CC)CCCC', '[8*]CC(CCCCCC)CCCCCCCC', '[11*]S[11*]', '[14*]c1cc(F)c([14*])s1', '[14*]c1ccc(C)s1', '[14*]c1ccc([14*])s1', '[9*]n1nc2c([16*])c(F)c(F)c([16*])c2n1', '[14*]c1cc2c([16*])c3sc(C)cc3c([16*])c2s1']","['[8*]CCCCCCCC', '[8*]CC', '[8*]CCCCCC', '[9*]n1nc2c([16*])ccc(/C=c3/sc(=C(C#N)C#N)n([9*])c3=O)c2n1', '[14*]c1cc2sc3c(c2s1)C(c1ccc([16*])cc1)(c1ccc([16*])cc1)c1cc2c(cc1-3)C(c1ccc([16*])cc1)(c1ccc([16*])cc1)c1c-2sc2cc([14*])sc12']","['[4*]CC(CC)CCCC', '[8*]CC(CCCCCC)CCCCCCCC', '[11*]S[11*]', '[14*]c1cc(F)c([14*])s1', '[14*]c1ccc(C)s1', '[14*]c1ccc([14*])s1', '[9*]n1nc2c([16*])c(F)c(F)c([16*])c2n1', '[14*]c1cc2c([16*])c3sc(C)cc3c([16*])c2s1', '.', '[8*]CCCCCCCC', '[8*]CC', '[8*]CCCCCC', '[9*]n1nc2c([16*])ccc(/C=c3/sc(=C(C#N)C#N)n([9*])c3=O)c2n1', '[14*]c1cc2sc3c(c2s1)C(c1ccc([16*])cc1)(c1ccc([16*])cc1)c1cc2c(cc1-3)C(c1ccc([16*])cc1)(c1ccc([16*])cc1)c1c-2sc2cc([14*])sc12']","[0, 0, 0, 3, 17, 25, 24, 6, 7, 19, 9, 1, 21, 22, 13, 23, 15]"
J61,BT-IC,-5.303333333333334,-3.151666666666667,-5.3775,-3.8575,1.0,CF,16.0,_,120.0,9.56,9.54,0.87,16.35,67.1,"['[4*]CCCCCCCCCCCC', '[8*]CC(CCCCCC)CCCCCCCC', '[11*]SS[11*]', '[14*]c1ccc([14*])s1', '[14*]c1ccc(C)s1', '[9*]n1nc2c([16*])c(F)c(F)c([16*])c2n1', '[14*]c1cc2c([16*])c3sc(C)cc3c([16*])c2s1']","['[4*]CC(CC)CCCC', '[3*]O[3*]', '[7*]C(C#N)C#N', '[7*]C1C(=O)c2ccccc2C1[7*]', '[7*]C[8*]', '[8*]CCCCCC', '[14*]c1cc2c(s1)-c1sc3c([16*])c4c5c(sc4c([16*])c3c1C2(c1ccc([16*])cc1)c1ccc([16*])cc1)-c1sc([14*])cc1C5(c1ccc([16*])cc1)c1ccc([16*])cc1']","['[4*]CCCCCCCCCCCC', '[8*]CC(CCCCCC)CCCCCCCC', '[11*]SS[11*]', '[14*]c1ccc([14*])s1', '[14*]c1ccc(C)s1', '[9*]n1nc2c([16*])c(F)c(F)c([16*])c2n1', '[14*]c1cc2c([16*])c3sc(C)cc3c([16*])c2s1', '.', '[4*]CC(CC)CCCC', '[3*]O[3*]', '[7*]C(C#N)C#N', '[7*]C1C(=O)c2ccccc2C1[7*]', '[7*]C[8*]', '[8*]CCCCCC', '[14*]c1cc2c(s1)-c1sc3c([16*])c4c5c(sc4c([16*])c3c1C2(c1ccc([16*])cc1)c1ccc([16*])cc1)-c1sc([14*])cc1C5(c1ccc([16*])cc1)c1ccc([16*])cc1']","[0, 0, 26, 17, 27, 7, 6, 19, 9, 1, 3, 2, 10, 11, 12, 13, 28]"
J71,BT-IC,-5.353333333333333,-3.4318181818181825,-5.3775,-3.8575,0.667,CF,16.0,_,120.0,10.46,10.5,0.9,17.75,65.7,"['[8*]CC(CCCCCC)CCCCCCCC', '[14*]c1ccc(C)s1', '[14*]c1ccc([Si](CCC)(CCC)CCC)s1', '[14*]c1ccc([14*])s1', '[9*]n1nc2c([16*])c(F)c(F)c([16*])c2n1', '[14*]c1cc2c([16*])c3sc(C)cc3c([16*])c2s1']","['[4*]CC(CC)CCCC', '[3*]O[3*]', '[7*]C(C#N)C#N', '[7*]C1C(=O)c2ccccc2C1[7*]', '[7*]C[8*]', '[8*]CCCCCC', '[14*]c1cc2c(s1)-c1sc3c([16*])c4c5c(sc4c([16*])c3c1C2(c1ccc([16*])cc1)c1ccc([16*])cc1)-c1sc([14*])cc1C5(c1ccc([16*])cc1)c1ccc([16*])cc1']","['[8*]CC(CCCCCC)CCCCCCCC', '[14*]c1ccc(C)s1', '[14*]c1ccc([Si](CCC)(CCC)CCC)s1', '[14*]c1ccc([14*])s1', '[9*]n1nc2c([16*])c(F)c(F)c([16*])c2n1', '[14*]c1cc2c([16*])c3sc(C)cc3c([16*])c2s1', '.', '[4*]CC(CC)CCCC', '[3*]O[3*]', '[7*]C(C#N)C#N', '[7*]C1C(=O)c2ccccc2C1[7*]', '[7*]C[8*]', '[8*]CCCCCC', '[14*]c1cc2c(s1)-c1sc3c([16*])c4c5c(sc4c([16*])c3c1C2(c1ccc([16*])cc1)c1ccc([16*])cc1)-c1sc([14*])cc1C5(c1ccc([16*])cc1)c1ccc([16*])cc1']","[0, 0, 0, 17, 6, 18, 7, 19, 9, 1, 3, 2, 10, 11, 12, 13, 28]"
J51,IDIC,-5.24,-3.056666666666666,-5.706,-4.002666666666667,1.0,CF,12.0,_,25.0,6.94,6.43,0.796,12.24,66.0,"['[8*]CCCCCCCC', '[8*]CC(CCCCCC)CCCCCCCC', '[14*]c1ccc([14*])s1', '[14*]c1ccc(C)s1', '[9*]n1nc2c([16*])c(F)c(F)c([16*])c2n1', '[14*]c1cc2c([16*])c3sc(C)cc3c([16*])c2s1']","['[7*]C(C#N)C#N', '[7*]C1C(=O)c2ccccc2C1[7*]', '[7*]C[8*]', '[14*]c1cc2c(s1)-c1cc3c(cc1C2(CCCCCC)CCCCCC)-c1sc([14*])cc1C3(CCCCCC)CCCCCC']","['[8*]CCCCCCCC', '[8*]CC(CCCCCC)CCCCCCCC', '[14*]c1ccc([14*])s1', '[14*]c1ccc(C)s1', '[9*]n1nc2c([16*])c(F)c(F)c([16*])c2n1', '[14*]c1cc2c([16*])c3sc(C)cc3c([16*])c2s1', '.', '[7*]C(C#N)C#N', '[7*]C1C(=O)c2ccccc2C1[7*]', '[7*]C[8*]', '[14*]c1cc2c(s1)-c1cc3c(cc1C2(CCCCCC)CCCCCC)-c1sc([14*])cc1C3(CCCCCC)CCCCCC']","[0, 0, 0, 0, 0, 0, 21, 17, 7, 6, 19, 9, 1, 10, 11, 12, 29]"
PDBT-T1,IDIC,-5.36,-3.43,-5.706,-4.002666666666667,1.0,CF,12.0,DIO,25.0,10.37,10.37,0.834,16.98,73.2,"['[8*]CCCCCCCC', '[8*]CC(CC)CCCC', '[14*]c1ccc(C)s1', '[14*]c1ccc([14*])s1', '[14*]c1sc([14*])c2c1C(=O)c1c([14*])sc([14*])c1C2=O', '[14*]c1cc2sc3c([16*])c4c(sc5cc(C)sc54)c([16*])c3c2s1']","['[7*]C(C#N)C#N', '[7*]C1C(=O)c2ccccc2C1[7*]', '[7*]C[8*]', '[14*]c1cc2c(s1)-c1cc3c(cc1C2(CCCCCC)CCCCCC)-c1sc([14*])cc1C3(CCCCCC)CCCCCC']","['[8*]CCCCCCCC', '[8*]CC(CC)CCCC', '[14*]c1ccc(C)s1', '[14*]c1ccc([14*])s1', '[14*]c1sc([14*])c2c1C(=O)c1c([14*])sc([14*])c1C2=O', '[14*]c1cc2sc3c([16*])c4c(sc5cc(C)sc54)c([16*])c3c2s1', '.', '[7*]C(C#N)C#N', '[7*]C1C(=O)c2ccccc2C1[7*]', '[7*]C[8*]', '[14*]c1cc2c(s1)-c1cc3c(cc1C2(CCCCCC)CCCCCC)-c1sc([14*])cc1C3(CCCCCC)CCCCCC']","[0, 0, 0, 0, 0, 0, 21, 5, 6, 7, 30, 31, 1, 10, 11, 12, 29]"
PDCBT,IDIC,-5.313333333333333,-3.1,-5.706,-4.002666666666667,1.0,CF,12.0,_,25.0,6.28,5.9,0.814,11.31,64.1,"['[3*]OS[11*]', '[4*]CC(CCCC)CCCCCC', '[1*]C([6*])=O', '[14*]c1ccc(C)s1', '[14*]c1cc([16*])c([14*])s1']","['[7*]C(C#N)C#N', '[7*]C1C(=O)c2ccccc2C1[7*]', '[7*]C[8*]', '[14*]c1cc2c(s1)-c1cc3c(cc1C2(CCCCCC)CCCCCC)-c1sc([14*])cc1C3(CCCCCC)CCCCCC']","['[3*]OS[11*]', '[4*]CC(CCCC)CCCCCC', '[1*]C([6*])=O', '[14*]c1ccc(C)s1', '[14*]c1cc([16*])c([14*])s1', '.', '[7*]C(C#N)C#N', '[7*]C1C(=O)c2ccccc2C1[7*]', '[7*]C[8*]', '[14*]c1cc2c(s1)-c1cc3c(cc1C2(CCCCCC)CCCCCC)-c1sc([14*])cc1C3(CCCCCC)CCCCCC']","[0, 0, 0, 0, 0, 0, 0, 32, 33, 4, 6, 34, 1, 10, 11, 12, 29]"
PTB7-Th,IDIC,-5.204782608695651,-3.5391891891891896,-5.706,-4.002666666666667,1.0,CF,12.0,_,25.0,5.24,4.93,0.806,10.9,56.1,"['[3*]O[3*]', '[4*]CC(CC)CCCC', '[1*]C([6*])=O', '[8*]CC(CC)CCCC', '[14*]c1sc2c([14*])sc(C)c2c1F', '[14*]c1ccc([14*])s1', '[14*]c1cc2c([16*])c3sc(C)cc3c([16*])c2s1']","['[7*]C(C#N)C#N', '[7*]C1C(=O)c2ccccc2C1[7*]', '[7*]C[8*]', '[14*]c1cc2c(s1)-c1cc3c(cc1C2(CCCCCC)CCCCCC)-c1sc([14*])cc1C3(CCCCCC)CCCCCC']","['[3*]O[3*]', '[4*]CC(CC)CCCC', '[1*]C([6*])=O', '[8*]CC(CC)CCCC', '[14*]c1sc2c([14*])sc(C)c2c1F', '[14*]c1ccc([14*])s1', '[14*]c1cc2c([16*])c3sc(C)cc3c([16*])c2s1', '.', '[7*]C(C#N)C#N', '[7*]C1C(=O)c2ccccc2C1[7*]', '[7*]C[8*]', '[14*]c1cc2c(s1)-c1cc3c(cc1C2(CCCCCC)CCCCCC)-c1sc([14*])cc1C3(CCCCCC)CCCCCC']","[0, 0, 0, 0, 0, 2, 3, 4, 5, 35, 7, 9, 1, 10, 11, 12, 29]"
PTFBDT-BZS,IDIC,-5.43,-3.58,-5.706,-4.002666666666667,1.0,CF,12.0,DIO,25.0,11.03,11.08,0.905,17.3,70.8,"['[4*]CCCCCCCCCCCC', '[3*]O[3*]', '[8*]CC(CC)CCCC', '[14*]c1ccc(C)s1', '[14*]c1ccc([14*])s1', '[16*]c1c([16*])c([16*])c2nsnc2c1[16*]', '[16*]c1cc(F)c([16*])c(F)c1', '[14*]c1cc2c([16*])c3sc(C)cc3c([16*])c2s1']","['[7*]C(C#N)C#N', '[7*]C1C(=O)c2ccccc2C1[7*]', '[7*]C[8*]', '[14*]c1cc2c(s1)-c1cc3c(cc1C2(CCCCCC)CCCCCC)-c1sc([14*])cc1C3(CCCCCC)CCCCCC']","['[4*]CCCCCCCCCCCC', '[3*]O[3*]', '[8*]CC(CC)CCCC', '[14*]c1ccc(C)s1', '[14*]c1ccc([14*])s1', '[16*]c1c([16*])c([16*])c2nsnc2c1[16*]', '[16*]c1cc(F)c([16*])c(F)c1', '[14*]c1cc2c([16*])c3sc(C)cc3c([16*])c2s1', '.', '[7*]C(C#N)C#N', '[7*]C1C(=O)c2ccccc2C1[7*]', '[7*]C[8*]', '[14*]c1cc2c(s1)-c1cc3c(cc1C2(CCCCCC)CCCCCC)-c1sc([14*])cc1C3(CCCCCC)CCCCCC']","[0, 0, 0, 0, 26, 2, 5, 6, 7, 36, 37, 9, 1, 10, 11, 12, 29]"
J71,IDTT-BH,-5.353333333333333,-3.4318181818181825,-5.24,-3.86,0.714,CF,12.0,_,25.0,11.05,11.05,0.9,17.77,69.1,"['[8*]CC(CCCCCC)CCCCCCCC', '[14*]c1ccc(C)s1', '[14*]c1ccc([Si](CCC)(CCC)CCC)s1', '[14*]c1ccc([14*])s1', '[9*]n1nc2c([16*])c(F)c(F)c([16*])c2n1', '[14*]c1cc2c([16*])c3sc(C)cc3c([16*])c2s1']","['[4*]CC(CCCC)CCCCCC', '[7*]C(C#N)C#N', '[7*]C1C(=O)c2cc3ccccc3cc2C1[7*]', '[7*]C[8*]', '[11*]S[11*]', '[14*]c1cc2sc3c(c2s1)C(c1ccc([16*])cc1)(c1ccc([16*])cc1)c1cc2c(cc1-3)C(c1ccc([16*])cc1)(c1ccc([16*])cc1)c1c-2sc2cc([14*])sc12']","['[8*]CC(CCCCCC)CCCCCCCC', '[14*]c1ccc(C)s1', '[14*]c1ccc([Si](CCC)(CCC)CCC)s1', '[14*]c1ccc([14*])s1', '[9*]n1nc2c([16*])c(F)c(F)c([16*])c2n1', '[14*]c1cc2c([16*])c3sc(C)cc3c([16*])c2s1', '.', '[4*]CC(CCCC)CCCCCC', '[7*]C(C#N)C#N', '[7*]C1C(=O)c2cc3ccccc3cc2C1[7*]', '[7*]C[8*]', '[11*]S[11*]', '[14*]c1cc2sc3c(c2s1)C(c1ccc([16*])cc1)(c1ccc([16*])cc1)c1cc2c(cc1-3)C(c1ccc([16*])cc1)(c1ccc([16*])cc1)c1c-2sc2cc([14*])sc12']","[0, 0, 0, 0, 17, 6, 18, 7, 19, 9, 1, 33, 10, 40, 12, 25, 15]"
PBDB-T,IDTT-BH,-5.297714285714285,-3.4170000000000003,-5.24,-3.86,1.25,CF,9.0,_,100.0,9.92,9.92,0.85,16.86,69.2,"['[8*]CC(CC)CCCC', '[14*]c1ccc(C)s1', '[14*]c1ccc([14*])s1', '[14*]c1sc([14*])c2c1C(=O)c1c([14*])sc([14*])c1C2=O', '[14*]c1cc2c([16*])c3sc(C)cc3c([16*])c2s1']","['[4*]CC(CCCC)CCCCCC', '[7*]C(C#N)C#N', '[7*]C1C(=O)c2cc3ccccc3cc2C1[7*]', '[7*]C[8*]', '[11*]S[11*]', '[14*]c1cc2sc3c(c2s1)C(c1ccc([16*])cc1)(c1ccc([16*])cc1)c1cc2c(cc1-3)C(c1ccc([16*])cc1)(c1ccc([16*])cc1)c1c-2sc2cc([14*])sc12']","['[8*]CC(CC)CCCC', '[14*]c1ccc(C)s1', '[14*]c1ccc([14*])s1', '[14*]c1sc([14*])c2c1C(=O)c1c([14*])sc([14*])c1C2=O', '[14*]c1cc2c([16*])c3sc(C)cc3c([16*])c2s1', '.', '[4*]CC(CCCC)CCCCCC', '[7*]C(C#N)C#N', '[7*]C1C(=O)c2cc3ccccc3cc2C1[7*]', '[7*]C[8*]', '[11*]S[11*]', '[14*]c1cc2sc3c(c2s1)C(c1ccc([16*])cc1)(c1ccc([16*])cc1)c1cc2c(cc1-3)C(c1ccc([16*])cc1)(c1ccc([16*])cc1)c1c-2sc2cc([14*])sc12']","[0, 0, 0, 0, 0, 5, 6, 7, 30, 9, 1, 33, 10, 40, 12, 25, 15]"
PDCBT,IDTT-BH,-5.313333333333333,-3.1,-5.24,-3.86,0.833,CF,11.0,_,120.0,10.35,10.35,0.88,17.15,68.6,"['[3*]OS[11*]', '[4*]CC(CCCC)CCCCCC', '[1*]C([6*])=O', '[14*]c1ccc(C)s1', '[14*]c1cc([16*])c([14*])s1']","['[4*]CC(CCCC)CCCCCC', '[7*]C(C#N)C#N', '[7*]C1C(=O)c2cc3ccccc3cc2C1[7*]', '[7*]C[8*]', '[11*]S[11*]', '[14*]c1cc2sc3c(c2s1)C(c1ccc([16*])cc1)(c1ccc([16*])cc1)c1cc2c(cc1-3)C(c1ccc([16*])cc1)(c1ccc([16*])cc1)c1c-2sc2cc([14*])sc12']","['[3*]OS[11*]', '[4*]CC(CCCC)CCCCCC', '[1*]C([6*])=O', '[14*]c1ccc(C)s1', '[14*]c1cc([16*])c([14*])s1', '.', '[4*]CC(CCCC)CCCCCC', '[7*]C(C#N)C#N', '[7*]C1C(=O)c2cc3ccccc3cc2C1[7*]', '[7*]C[8*]', '[11*]S[11*]', '[14*]c1cc2sc3c(c2s1)C(c1ccc([16*])cc1)(c1ccc([16*])cc1)c1cc2c(cc1-3)C(c1ccc([16*])cc1)(c1ccc([16*])cc1)c1c-2sc2cc([14*])sc12']","[0, 0, 0, 0, 0, 32, 33, 4, 6, 34, 1, 33, 10, 40, 12, 25, 15]"
J71,IDTT-OBH,-5.353333333333333,-3.4318181818181825,-5.41,-3.86,1.0,CF,10.0,_,25.0,8.02,8.28,0.92,14.75,61.0,"['[8*]CC(CCCCCC)CCCCCCCC', '[14*]c1ccc(C)s1', '[14*]c1ccc([Si](CCC)(CCC)CCC)s1', '[14*]c1ccc([14*])s1', '[9*]n1nc2c([16*])c(F)c(F)c([16*])c2n1', '[14*]c1cc2c([16*])c3sc(C)cc3c([16*])c2s1']","['[3*]OS[11*]', '[4*]CC(CCCC)CCCCCC', '[7*]C(C#N)C#N', '[7*]C1C(=O)c2cc3ccccc3cc2C1[7*]', '[7*]C[8*]', '[14*]c1cc2sc3c(c2s1)C(c1ccc([16*])cc1)(c1ccc([16*])cc1)c1cc2c(cc1-3)C(c1ccc([16*])cc1)(c1ccc([16*])cc1)c1c-2sc2cc([14*])sc12']","['[8*]CC(CCCCCC)CCCCCCCC', '[14*]c1ccc(C)s1', '[14*]c1ccc([Si](CCC)(CCC)CCC)s1', '[14*]c1ccc([14*])s1', '[9*]n1nc2c([16*])c(F)c(F)c([16*])c2n1', '[14*]c1cc2c([16*])c3sc(C)cc3c([16*])c2s1', '.', '[3*]OS[11*]', '[4*]CC(CCCC)CCCCCC', '[7*]C(C#N)C#N', '[7*]C1C(=O)c2cc3ccccc3cc2C1[7*]', '[7*]C[8*]', '[14*]c1cc2sc3c(c2s1)C(c1ccc([16*])cc1)(c1ccc([16*])cc1)c1cc2c(cc1-3)C(c1ccc([16*])cc1)(c1ccc([16*])cc1)c1c-2sc2cc([14*])sc12']","[0, 0, 0, 0, 17, 6, 18, 7, 19, 9, 1, 32, 33, 10, 40, 12, 15]"
PBDB-T,IDTT-OBH,-5.297714285714285,-3.4170000000000003,-5.41,-3.86,1.25,CF,9.0,_,110.0,10.93,10.94,0.87,17.46,72.0,"['[8*]CC(CC)CCCC', '[14*]c1ccc(C)s1', '[14*]c1ccc([14*])s1', '[14*]c1sc([14*])c2c1C(=O)c1c([14*])sc([14*])c1C2=O', '[14*]c1cc2c([16*])c3sc(C)cc3c([16*])c2s1']","['[3*]OS[11*]', '[4*]CC(CCCC)CCCCCC', '[7*]C(C#N)C#N', '[7*]C1C(=O)c2cc3ccccc3cc2C1[7*]', '[7*]C[8*]', '[14*]c1cc2sc3c(c2s1)C(c1ccc([16*])cc1)(c1ccc([16*])cc1)c1cc2c(cc1-3)C(c1ccc([16*])cc1)(c1ccc([16*])cc1)c1c-2sc2cc([14*])sc12']","['[8*]CC(CC)CCCC', '[14*]c1ccc(C)s1', '[14*]c1ccc([14*])s1', '[14*]c1sc([14*])c2c1C(=O)c1c([14*])sc([14*])c1C2=O', '[14*]c1cc2c([16*])c3sc(C)cc3c([16*])c2s1', '.', '[3*]OS[11*]', '[4*]CC(CCCC)CCCCCC', '[7*]C(C#N)C#N', '[7*]C1C(=O)c2cc3ccccc3cc2C1[7*]', '[7*]C[8*]', '[14*]c1cc2sc3c(c2s1)C(c1ccc([16*])cc1)(c1ccc([16*])cc1)c1cc2c(cc1-3)C(c1ccc([16*])cc1)(c1ccc([16*])cc1)c1c-2sc2cc([14*])sc12']","[0, 0, 0, 0, 0, 5, 6, 7, 30, 9, 1, 32, 33, 10, 40, 12, 15]"
J52,IEICO-4Cl,-5.218571428571429,-3.341428571428572,-5.56,-4.23,0.667,CB,10.0,DIO,150.0,10.1,10.11,0.7,23.8,60.7,"['[8*]CC(CCCCCC)CCCCCCCC', '[8*]CC(CC)CCCC', '[14*]c1ccc([14*])s1', '[14*]c1ccc(C)s1', '[9*]n1nc2c([16*])c(F)c(F)c([16*])c2n1', '[14*]c1cc2c([16*])c3sc(C)cc3c([16*])c2s1']","['[4*]CC(CC)CCCC', '[3*]O[3*]', '[7*]C(C#N)C#N', '[7*]C1C(=O)c2cc(Cl)c(Cl)cc2C1[7*]', '[7*]C[8*]', '[8*]CCCCCC', '[14*]c1cc([16*])c([14*])s1', '[14*]c1cc2c(s1)-c1cc3c(cc1C2(c1ccc([16*])cc1)c1ccc([16*])cc1)-c1sc([14*])cc1C3(c1ccc([16*])cc1)c1ccc([16*])cc1']","['[8*]CC(CCCCCC)CCCCCCCC', '[8*]CC(CC)CCCC', '[14*]c1ccc([14*])s1', '[14*]c1ccc(C)s1', '[9*]n1nc2c([16*])c(F)c(F)c([16*])c2n1', '[14*]c1cc2c([16*])c3sc(C)cc3c([16*])c2s1', '.', '[4*]CC(CC)CCCC', '[3*]O[3*]', '[7*]C(C#N)C#N', '[7*]C1C(=O)c2cc(Cl)c(Cl)cc2C1[7*]', '[7*]C[8*]', '[8*]CCCCCC', '[14*]c1cc([16*])c([14*])s1', '[14*]c1cc2c(s1)-c1cc3c(cc1C2(c1ccc([16*])cc1)c1ccc([16*])cc1)-c1sc([14*])cc1C3(c1ccc([16*])cc1)c1ccc([16*])cc1']","[0, 0, 17, 5, 7, 6, 19, 9, 1, 3, 2, 10, 41, 12, 13, 34, 38]"
PTB7-Th,IEICO-4Cl,-5.204782608695651,-3.5391891891891896,-5.56,-4.23,0.667,CB,10.0,DIO,150.0,10.3,10.28,0.727,22.8,62.0,"['[3*]O[3*]', '[4*]CC(CC)CCCC', '[1*]C([6*])=O', '[8*]CC(CC)CCCC', '[14*]c1sc2c([14*])sc(C)c2c1F', '[14*]c1ccc([14*])s1', '[14*]c1cc2c([16*])c3sc(C)cc3c([16*])c2s1']","['[4*]CC(CC)CCCC', '[3*]O[3*]', '[7*]C(C#N)C#N', '[7*]C1C(=O)c2cc(Cl)c(Cl)cc2C1[7*]', '[7*]C[8*]', '[8*]CCCCCC', '[14*]c1cc([16*])c([14*])s1', '[14*]c1cc2c(s1)-c1cc3c(cc1C2(c1ccc([16*])cc1)c1ccc([16*])cc1)-c1sc([14*])cc1C3(c1ccc([16*])cc1)c1ccc([16*])cc1']","['[3*]O[3*]', '[4*]CC(CC)CCCC', '[1*]C([6*])=O', '[8*]CC(CC)CCCC', '[14*]c1sc2c([14*])sc(C)c2c1F', '[14*]c1ccc([14*])s1', '[14*]c1cc2c([16*])c3sc(C)cc3c([16*])c2s1', '.', '[4*]CC(CC)CCCC', '[3*]O[3*]', '[7*]C(C#N)C#N', '[7*]C1C(=O)c2cc(Cl)c(Cl)cc2C1[7*]', '[7*]C[8*]', '[8*]CCCCCC', '[14*]c1cc([16*])c([14*])s1', '[14*]c1cc2c(s1)-c1cc3c(cc1C2(c1ccc([16*])cc1)c1ccc([16*])cc1)-c1sc([14*])cc1C3(c1ccc([16*])cc1)c1ccc([16*])cc1']","[0, 2, 3, 4, 5, 35, 7, 9, 1, 3, 2, 10, 41, 12, 13, 34, 38]"
J52,IEICO-4F,-5.218571428571429,-3.341428571428572,-5.309971428571429,-3.851028571428572,0.769,CB,24.0,_,130.0,8.2,8.2,0.704,20.48,56.9,"['[8*]CC(CCCCCC)CCCCCCCC', '[8*]CC(CC)CCCC', '[14*]c1ccc([14*])s1', '[14*]c1ccc(C)s1', '[9*]n1nc2c([16*])c(F)c(F)c([16*])c2n1', '[14*]c1cc2c([16*])c3sc(C)cc3c([16*])c2s1']","['[4*]CC(CC)CCCC', '[3*]O[3*]', '[7*]C(C#N)C#N', '[7*]C1C(=O)c2cc(F)c(F)cc2C1[7*]', '[7*]C[8*]', '[8*]CCCCCC', '[14*]c1cc([16*])c([14*])s1', '[14*]c1cc2c(s1)-c1cc3c(cc1C2(c1ccc([16*])cc1)c1ccc([16*])cc1)-c1sc([14*])cc1C3(c1ccc([16*])cc1)c1ccc([16*])cc1']","['[8*]CC(CCCCCC)CCCCCCCC', '[8*]CC(CC)CCCC', '[14*]c1ccc([14*])s1', '[14*]c1ccc(C)s1', '[9*]n1nc2c([16*])c(F)c(F)c([16*])c2n1', '[14*]c1cc2c([16*])c3sc(C)cc3c([16*])c2s1', '.', '[4*]CC(CC)CCCC', '[3*]O[3*]', '[7*]C(C#N)C#N', '[7*]C1C(=O)c2cc(F)c(F)cc2C1[7*]', '[7*]C[8*]', '[8*]CCCCCC', '[14*]c1cc([16*])c([14*])s1', '[14*]c1cc2c(s1)-c1cc3c(cc1C2(c1ccc([16*])cc1)c1ccc([16*])cc1)-c1sc([14*])cc1C3(c1ccc([16*])cc1)c1ccc([16*])cc1']","[0, 0, 17, 5, 7, 6, 19, 9, 1, 3, 2, 10, 42, 12, 13, 34, 38]"
J52,i-IEICO-4F,-5.218571428571429,-3.341428571428572,-5.0183,-3.3307,1.0,CB,24.0,_,130.0,13.18,13.18,0.849,22.86,67.9,"['[8*]CC(CCCCCC)CCCCCCCC', '[8*]CC(CC)CCCC', '[14*]c1ccc([14*])s1', '[14*]c1ccc(C)s1', '[9*]n1nc2c([16*])c(F)c(F)c([16*])c2n1', '[14*]c1cc2c([16*])c3sc(C)cc3c([16*])c2s1']","['[4*]CC(CC)CCCC', '[3*]O[3*]', '[7*]C(C#N)C#N', '[7*]C1C(=O)c2cc(F)c(F)cc2C1[7*]', '[7*]C[8*]', '[8*]CCCCCC', '[14*]c1scc([16*])c1[16*]', '[14*]c1cc2c(s1)-c1cc3c(cc1C2(c1ccc([16*])cc1)c1ccc([16*])cc1)-c1sc([14*])cc1C3(c1ccc([16*])cc1)c1ccc([16*])cc1']","['[8*]CC(CCCCCC)CCCCCCCC', '[8*]CC(CC)CCCC', '[14*]c1ccc([14*])s1', '[14*]c1ccc(C)s1', '[9*]n1nc2c([16*])c(F)c(F)c([16*])c2n1', '[14*]c1cc2c([16*])c3sc(C)cc3c([16*])c2s1', '.', '[4*]CC(CC)CCCC', '[3*]O[3*]', '[7*]C(C#N)C#N', '[7*]C1C(=O)c2cc(F)c(F)cc2C1[7*]', '[7*]C[8*]', '[8*]CCCCCC', '[14*]c1scc([16*])c1[16*]', '[14*]c1cc2c(s1)-c1cc3c(cc1C2(c1ccc([16*])cc1)c1ccc([16*])cc1)-c1sc([14*])cc1C3(c1ccc([16*])cc1)c1ccc([16*])cc1']","[0, 0, 17, 5, 7, 6, 19, 9, 1, 3, 2, 10, 42, 12, 13, 43, 38]"