Donor,Acceptor,HOMO_D_eV,LUMO_D_eV,HOMO_A_eV,LUMO_A_eV,D_A_ratio_m_m,solvent,total_solids_conc_mg_mL,solvent_additive,annealing_temperature,PCE_percent,calc_PCE_percent,Voc_V,FF_percent,Donor_BRICS,Acceptor_BRICS,DA_pair_BRICS,DA_tokenized_BRICS
PBDB-T,ITC6-IC,-5.297714285714285,-3.4170000000000003,-5.73,-3.92,1.0,CB,12.5,_,125.0,11.61,11.62,0.97,73.0,"[<rdkit.Chem.rdchem.Mol object at 0x7f5838e0e730>, <rdkit.Chem.rdchem.Mol object at 0x7f5838e0d8c0>, <rdkit.Chem.rdchem.Mol object at 0x7f5838e0f6f0>, <rdkit.Chem.rdchem.Mol object at 0x7f5838e0dd20>, <rdkit.Chem.rdchem.Mol object at 0x7f5838e10c80>]","[<rdkit.Chem.rdchem.Mol object at 0x7f5838e0f140>, <rdkit.Chem.rdchem.Mol object at 0x7f5838e0fc30>, <rdkit.Chem.rdchem.Mol object at 0x7f5838e0f220>, <rdkit.Chem.rdchem.Mol object at 0x7f5838e0d540>, <rdkit.Chem.rdchem.Mol object at 0x7f5838e112a0>]","[<rdkit.Chem.rdchem.Mol object at 0x7f5838e0e730>, <rdkit.Chem.rdchem.Mol object at 0x7f5838e0d8c0>, <rdkit.Chem.rdchem.Mol object at 0x7f5838e0f6f0>, <rdkit.Chem.rdchem.Mol object at 0x7f5838e0dd20>, <rdkit.Chem.rdchem.Mol object at 0x7f5838e10c80>, '.', <rdkit.Chem.rdchem.Mol object at 0x7f5838e0f140>, <rdkit.Chem.rdchem.Mol object at 0x7f5838e0fc30>, <rdkit.Chem.rdchem.Mol object at 0x7f5838e0f220>, <rdkit.Chem.rdchem.Mol object at 0x7f5838e0d540>, <rdkit.Chem.rdchem.Mol object at 0x7f5838e112a0>]","[0, 0, 0, 0, 0, 0, 3448, 3449, 3450, 3451, 3452, 1, 3453, 3454, 3455, 3456, 3457]"
PBDBT-2F,IT-4F,-5.5,-3.75,-5.66875,-4.060416666666667,1.0,CB,20.0,DIO,25.0,13.37,13.33,0.86,74.5,"[<rdkit.Chem.rdchem.Mol object at 0x7f5838e0e500>, <rdkit.Chem.rdchem.Mol object at 0x7f5838e102e0>, <rdkit.Chem.rdchem.Mol object at 0x7f5838e10270>, <rdkit.Chem.rdchem.Mol object at 0x7f5838e103c0>, <rdkit.Chem.rdchem.Mol object at 0x7f5838e113f0>, <rdkit.Chem.rdchem.Mol object at 0x7f5838e11e00>]","[<rdkit.Chem.rdchem.Mol object at 0x7f5838e11f50>, <rdkit.Chem.rdchem.Mol object at 0x7f5838e10510>, <rdkit.Chem.rdchem.Mol object at 0x7f5838e11000>, <rdkit.Chem.rdchem.Mol object at 0x7f5838e114d0>, <rdkit.Chem.rdchem.Mol object at 0x7f5838e10970>]","[<rdkit.Chem.rdchem.Mol object at 0x7f5838e0e500>, <rdkit.Chem.rdchem.Mol object at 0x7f5838e102e0>, <rdkit.Chem.rdchem.Mol object at 0x7f5838e10270>, <rdkit.Chem.rdchem.Mol object at 0x7f5838e103c0>, <rdkit.Chem.rdchem.Mol object at 0x7f5838e113f0>, <rdkit.Chem.rdchem.Mol object at 0x7f5838e11e00>, '.', <rdkit.Chem.rdchem.Mol object at 0x7f5838e11f50>, <rdkit.Chem.rdchem.Mol object at 0x7f5838e10510>, <rdkit.Chem.rdchem.Mol object at 0x7f5838e11000>, <rdkit.Chem.rdchem.Mol object at 0x7f5838e114d0>, <rdkit.Chem.rdchem.Mol object at 0x7f5838e10970>]","[0, 0, 0, 0, 0, 3510, 3511, 3512, 3513, 3514, 3515, 1, 3516, 3517, 3518, 3519, 3520]"
PBDBT-2F,ITIC,-5.5,-3.75,-5.574146341463415,-3.915,1.0,CB,20.0,DIO,25.0,10.64,10.64,1.0,66.07,"[<rdkit.Chem.rdchem.Mol object at 0x7f5838e0f060>, <rdkit.Chem.rdchem.Mol object at 0x7f5838e10b30>, <rdkit.Chem.rdchem.Mol object at 0x7f5838e10f20>, <rdkit.Chem.rdchem.Mol object at 0x7f5838e11850>, <rdkit.Chem.rdchem.Mol object at 0x7f5838e10820>, <rdkit.Chem.rdchem.Mol object at 0x7f5838e11bd0>]","[<rdkit.Chem.rdchem.Mol object at 0x7f5838e12730>, <rdkit.Chem.rdchem.Mol object at 0x7f5838e10e40>, <rdkit.Chem.rdchem.Mol object at 0x7f5838e10eb0>, <rdkit.Chem.rdchem.Mol object at 0x7f5838e12260>, <rdkit.Chem.rdchem.Mol object at 0x7f5838e12030>]","[<rdkit.Chem.rdchem.Mol object at 0x7f5838e0f060>, <rdkit.Chem.rdchem.Mol object at 0x7f5838e10b30>, <rdkit.Chem.rdchem.Mol object at 0x7f5838e10f20>, <rdkit.Chem.rdchem.Mol object at 0x7f5838e11850>, <rdkit.Chem.rdchem.Mol object at 0x7f5838e10820>, <rdkit.Chem.rdchem.Mol object at 0x7f5838e11bd0>, '.', <rdkit.Chem.rdchem.Mol object at 0x7f5838e12730>, <rdkit.Chem.rdchem.Mol object at 0x7f5838e10e40>, <rdkit.Chem.rdchem.Mol object at 0x7f5838e10eb0>, <rdkit.Chem.rdchem.Mol object at 0x7f5838e12260>, <rdkit.Chem.rdchem.Mol object at 0x7f5838e12030>]","[0, 0, 0, 0, 0, 3521, 3522, 3523, 3524, 3525, 3526, 1, 3527, 3528, 3529, 3530, 3531]"
PBDB-T,ATT-6,-5.297714285714285,-3.4170000000000003,-5.45,-3.61,1.0,CF,15.0,_,160.0,8.22,8.36,0.96,59.37,"[<rdkit.Chem.rdchem.Mol object at 0x7f5838e0f840>, <rdkit.Chem.rdchem.Mol object at 0x7f5838e11540>, <rdkit.Chem.rdchem.Mol object at 0x7f5838e10c10>, <rdkit.Chem.rdchem.Mol object at 0x7f5838e10040>, <rdkit.Chem.rdchem.Mol object at 0x7f5838e12960>]","[<rdkit.Chem.rdchem.Mol object at 0x7f5838e12ab0>, <rdkit.Chem.rdchem.Mol object at 0x7f5838e129d0>, <rdkit.Chem.rdchem.Mol object at 0x7f5838e12b90>, <rdkit.Chem.rdchem.Mol object at 0x7f5838e127a0>, <rdkit.Chem.rdchem.Mol object at 0x7f5838e12420>, <rdkit.Chem.rdchem.Mol object at 0x7f5838e12180>, <rdkit.Chem.rdchem.Mol object at 0x7f5838e122d0>]","[<rdkit.Chem.rdchem.Mol object at 0x7f5838e0f840>, <rdkit.Chem.rdchem.Mol object at 0x7f5838e11540>, <rdkit.Chem.rdchem.Mol object at 0x7f5838e10c10>, <rdkit.Chem.rdchem.Mol object at 0x7f5838e10040>, <rdkit.Chem.rdchem.Mol object at 0x7f5838e12960>, '.', <rdkit.Chem.rdchem.Mol object at 0x7f5838e12ab0>, <rdkit.Chem.rdchem.Mol object at 0x7f5838e129d0>, <rdkit.Chem.rdchem.Mol object at 0x7f5838e12b90>, <rdkit.Chem.rdchem.Mol object at 0x7f5838e127a0>, <rdkit.Chem.rdchem.Mol object at 0x7f5838e12420>, <rdkit.Chem.rdchem.Mol object at 0x7f5838e12180>, <rdkit.Chem.rdchem.Mol object at 0x7f5838e122d0>]","[0, 0, 0, 0, 3532, 3533, 3534, 3535, 3536, 1, 3537, 3538, 3539, 3540, 3541, 3542, 3543]"
PBDB-T,ATT-7,-5.297714285714285,-3.4170000000000003,-5.48,-3.66,1.0,CF,15.0,_,160.0,10.12,10.34,0.97,66.67,"[<rdkit.Chem.rdchem.Mol object at 0x7f5838e11770>, <rdkit.Chem.rdchem.Mol object at 0x7f5838e10190>, <rdkit.Chem.rdchem.Mol object at 0x7f5838e12340>, <rdkit.Chem.rdchem.Mol object at 0x7f5838e10d60>, <rdkit.Chem.rdchem.Mol object at 0x7f5838e12f80>]","[<rdkit.Chem.rdchem.Mol object at 0x7f5838e130d0>, <rdkit.Chem.rdchem.Mol object at 0x7f5838e12ff0>, <rdkit.Chem.rdchem.Mol object at 0x7f5838e10cf0>, <rdkit.Chem.rdchem.Mol object at 0x7f5838e11460>, <rdkit.Chem.rdchem.Mol object at 0x7f5838e12490>, <rdkit.Chem.rdchem.Mol object at 0x7f5838e11cb0>, <rdkit.Chem.rdchem.Mol object at 0x7f5838e13300>, <rdkit.Chem.rdchem.Mol object at 0x7f5838e13060>, <rdkit.Chem.rdchem.Mol object at 0x7f5838e13370>]","[<rdkit.Chem.rdchem.Mol object at 0x7f5838e11770>, <rdkit.Chem.rdchem.Mol object at 0x7f5838e10190>, <rdkit.Chem.rdchem.Mol object at 0x7f5838e12340>, <rdkit.Chem.rdchem.Mol object at 0x7f5838e10d60>, <rdkit.Chem.rdchem.Mol object at 0x7f5838e12f80>, '.', <rdkit.Chem.rdchem.Mol object at 0x7f5838e130d0>, <rdkit.Chem.rdchem.Mol object at 0x7f5838e12ff0>, <rdkit.Chem.rdchem.Mol object at 0x7f5838e10cf0>, <rdkit.Chem.rdchem.Mol object at 0x7f5838e11460>, <rdkit.Chem.rdchem.Mol object at 0x7f5838e12490>, <rdkit.Chem.rdchem.Mol object at 0x7f5838e11cb0>, <rdkit.Chem.rdchem.Mol object at 0x7f5838e13300>, <rdkit.Chem.rdchem.Mol object at 0x7f5838e13060>, <rdkit.Chem.rdchem.Mol object at 0x7f5838e13370>]","[0, 0, 3544, 3545, 3546, 3547, 3548, 1, 3549, 3550, 3551, 3552, 3553, 3554, 3555, 3556, 3557]"
PBDB-T,Y1,-5.297714285714285,-3.4170000000000003,-5.45,-3.95,1.0,CB,16.0,CN,25.0,13.42,13.49,0.87,69.1,"[<rdkit.Chem.rdchem.Mol object at 0x7f5838e11380>, <rdkit.Chem.rdchem.Mol object at 0x7f5838e11a80>, <rdkit.Chem.rdchem.Mol object at 0x7f5838e12110>, <rdkit.Chem.rdchem.Mol object at 0x7f5838e11d90>, <rdkit.Chem.rdchem.Mol object at 0x7f5838e13610>]","[<rdkit.Chem.rdchem.Mol object at 0x7f5838e13840>, <rdkit.Chem.rdchem.Mol object at 0x7f5838e11d20>, <rdkit.Chem.rdchem.Mol object at 0x7f5838e12a40>, <rdkit.Chem.rdchem.Mol object at 0x7f5838e11fc0>, <rdkit.Chem.rdchem.Mol object at 0x7f5838e11150>]","[<rdkit.Chem.rdchem.Mol object at 0x7f5838e11380>, <rdkit.Chem.rdchem.Mol object at 0x7f5838e11a80>, <rdkit.Chem.rdchem.Mol object at 0x7f5838e12110>, <rdkit.Chem.rdchem.Mol object at 0x7f5838e11d90>, <rdkit.Chem.rdchem.Mol object at 0x7f5838e13610>, '.', <rdkit.Chem.rdchem.Mol object at 0x7f5838e13840>, <rdkit.Chem.rdchem.Mol object at 0x7f5838e11d20>, <rdkit.Chem.rdchem.Mol object at 0x7f5838e12a40>, <rdkit.Chem.rdchem.Mol object at 0x7f5838e11fc0>, <rdkit.Chem.rdchem.Mol object at 0x7f5838e11150>]","[0, 0, 0, 0, 0, 0, 3558, 3559, 3560, 3561, 3562, 1, 3563, 3564, 3565, 3566, 3567]"
PBDB-T,Y2,-5.297714285714285,-3.4170000000000003,-5.43,-4.04,1.0,CB,16.0,CN,25.0,13.4,13.41,0.82,69.4,"[<rdkit.Chem.rdchem.Mol object at 0x7f5838e126c0>, <rdkit.Chem.rdchem.Mol object at 0x7f5838e12880>, <rdkit.Chem.rdchem.Mol object at 0x7f5838e12c00>, <rdkit.Chem.rdchem.Mol object at 0x7f5838e11e70>, <rdkit.Chem.rdchem.Mol object at 0x7f5838e13ae0>]","[<rdkit.Chem.rdchem.Mol object at 0x7f5838e13d10>, <rdkit.Chem.rdchem.Mol object at 0x7f5838e12dc0>, <rdkit.Chem.rdchem.Mol object at 0x7f5838e131b0>, <rdkit.Chem.rdchem.Mol object at 0x7f5838e11310>, <rdkit.Chem.rdchem.Mol object at 0x7f5838e109e0>]","[<rdkit.Chem.rdchem.Mol object at 0x7f5838e126c0>, <rdkit.Chem.rdchem.Mol object at 0x7f5838e12880>, <rdkit.Chem.rdchem.Mol object at 0x7f5838e12c00>, <rdkit.Chem.rdchem.Mol object at 0x7f5838e11e70>, <rdkit.Chem.rdchem.Mol object at 0x7f5838e13ae0>, '.', <rdkit.Chem.rdchem.Mol object at 0x7f5838e13d10>, <rdkit.Chem.rdchem.Mol object at 0x7f5838e12dc0>, <rdkit.Chem.rdchem.Mol object at 0x7f5838e131b0>, <rdkit.Chem.rdchem.Mol object at 0x7f5838e11310>, <rdkit.Chem.rdchem.Mol object at 0x7f5838e109e0>]","[0, 0, 0, 0, 0, 0, 3568, 3569, 3570, 3571, 3572, 1, 3573, 3574, 3575, 3576, 3577]"
PTBB-o,ITCPTC,-5.52,-3.37,-5.604000000000001,-3.858000000000001,1.0,CF,16.0,_,100.0,2.14,2.22,0.99,30.5,"[<rdkit.Chem.rdchem.Mol object at 0x7f5838e12650>, <rdkit.Chem.rdchem.Mol object at 0x7f5838e13a70>, <rdkit.Chem.rdchem.Mol object at 0x7f5838e10dd0>, <rdkit.Chem.rdchem.Mol object at 0x7f5838e13760>, <rdkit.Chem.rdchem.Mol object at 0x7f5838e119a0>, <rdkit.Chem.rdchem.Mol object at 0x7f5838e11c40>, <rdkit.Chem.rdchem.Mol object at 0x7f5838e125e0>, <rdkit.Chem.rdchem.Mol object at 0x7f5838e24970>]","[<rdkit.Chem.rdchem.Mol object at 0x7f5838e12570>, <rdkit.Chem.rdchem.Mol object at 0x7f5838e13ca0>, <rdkit.Chem.rdchem.Mol object at 0x7f5838e12ea0>, <rdkit.Chem.rdchem.Mol object at 0x7f5838e120a0>, <rdkit.Chem.rdchem.Mol object at 0x7f5838e24a50>]","[<rdkit.Chem.rdchem.Mol object at 0x7f5838e12650>, <rdkit.Chem.rdchem.Mol object at 0x7f5838e13a70>, <rdkit.Chem.rdchem.Mol object at 0x7f5838e10dd0>, <rdkit.Chem.rdchem.Mol object at 0x7f5838e13760>, <rdkit.Chem.rdchem.Mol object at 0x7f5838e119a0>, <rdkit.Chem.rdchem.Mol object at 0x7f5838e11c40>, <rdkit.Chem.rdchem.Mol object at 0x7f5838e125e0>, <rdkit.Chem.rdchem.Mol object at 0x7f5838e24970>, '.', <rdkit.Chem.rdchem.Mol object at 0x7f5838e12570>, <rdkit.Chem.rdchem.Mol object at 0x7f5838e13ca0>, <rdkit.Chem.rdchem.Mol object at 0x7f5838e12ea0>, <rdkit.Chem.rdchem.Mol object at 0x7f5838e120a0>, <rdkit.Chem.rdchem.Mol object at 0x7f5838e24a50>]","[0, 0, 0, 3602, 3603, 3604, 3605, 3606, 3607, 3608, 3609, 1, 3610, 3611, 3612, 3613, 3614]"
PTBB-m,ITCPTC,-5.48,-3.42,-5.604000000000001,-3.858000000000001,1.0,CF,16.0,_,100.0,7.07,7.06,0.97,48.4,"[<rdkit.Chem.rdchem.Mol object at 0x7f5838e13f40>, <rdkit.Chem.rdchem.Mol object at 0x7f5838e13a00>, <rdkit.Chem.rdchem.Mol object at 0x7f5838e11930>, <rdkit.Chem.rdchem.Mol object at 0x7f5838e24660>, <rdkit.Chem.rdchem.Mol object at 0x7f5838e13140>, <rdkit.Chem.rdchem.Mol object at 0x7f5838e24040>, <rdkit.Chem.rdchem.Mol object at 0x7f5838e246d0>, <rdkit.Chem.rdchem.Mol object at 0x7f5838e24c80>]","[<rdkit.Chem.rdchem.Mol object at 0x7f5838e11230>, <rdkit.Chem.rdchem.Mol object at 0x7f5838e24270>, <rdkit.Chem.rdchem.Mol object at 0x7f5838e13920>, <rdkit.Chem.rdchem.Mol object at 0x7f5838e244a0>, <rdkit.Chem.rdchem.Mol object at 0x7f5838e24d60>]","[<rdkit.Chem.rdchem.Mol object at 0x7f5838e13f40>, <rdkit.Chem.rdchem.Mol object at 0x7f5838e13a00>, <rdkit.Chem.rdchem.Mol object at 0x7f5838e11930>, <rdkit.Chem.rdchem.Mol object at 0x7f5838e24660>, <rdkit.Chem.rdchem.Mol object at 0x7f5838e13140>, <rdkit.Chem.rdchem.Mol object at 0x7f5838e24040>, <rdkit.Chem.rdchem.Mol object at 0x7f5838e246d0>, <rdkit.Chem.rdchem.Mol object at 0x7f5838e24c80>, '.', <rdkit.Chem.rdchem.Mol object at 0x7f5838e11230>, <rdkit.Chem.rdchem.Mol object at 0x7f5838e24270>, <rdkit.Chem.rdchem.Mol object at 0x7f5838e13920>, <rdkit.Chem.rdchem.Mol object at 0x7f5838e244a0>, <rdkit.Chem.rdchem.Mol object at 0x7f5838e24d60>]","[0, 0, 0, 3615, 3616, 3617, 3618, 3619, 3620, 3621, 3622, 1, 3623, 3624, 3625, 3626, 3627]"
PTBB-p,ITCPTC,-5.41,-3.49,-5.604000000000001,-3.858000000000001,1.0,CF,16.0,_,100.0,7.26,7.27,0.91,50.9,"[<rdkit.Chem.rdchem.Mol object at 0x7f5838e136f0>, <rdkit.Chem.rdchem.Mol object at 0x7f5838e134c0>, <rdkit.Chem.rdchem.Mol object at 0x7f5838e12c70>, <rdkit.Chem.rdchem.Mol object at 0x7f5838e24580>, <rdkit.Chem.rdchem.Mol object at 0x7f5838e24350>, <rdkit.Chem.rdchem.Mol object at 0x7f5838e242e0>, <rdkit.Chem.rdchem.Mol object at 0x7f5838e245f0>, <rdkit.Chem.rdchem.Mol object at 0x7f5838e252a0>]","[<rdkit.Chem.rdchem.Mol object at 0x7f5838e250e0>, <rdkit.Chem.rdchem.Mol object at 0x7f5838e24890>, <rdkit.Chem.rdchem.Mol object at 0x7f5838e13680>, <rdkit.Chem.rdchem.Mol object at 0x7f5838e24900>, <rdkit.Chem.rdchem.Mol object at 0x7f5838e24e40>]","[<rdkit.Chem.rdchem.Mol object at 0x7f5838e136f0>, <rdkit.Chem.rdchem.Mol object at 0x7f5838e134c0>, <rdkit.Chem.rdchem.Mol object at 0x7f5838e12c70>, <rdkit.Chem.rdchem.Mol object at 0x7f5838e24580>, <rdkit.Chem.rdchem.Mol object at 0x7f5838e24350>, <rdkit.Chem.rdchem.Mol object at 0x7f5838e242e0>, <rdkit.Chem.rdchem.Mol object at 0x7f5838e245f0>, <rdkit.Chem.rdchem.Mol object at 0x7f5838e252a0>, '.', <rdkit.Chem.rdchem.Mol object at 0x7f5838e250e0>, <rdkit.Chem.rdchem.Mol object at 0x7f5838e24890>, <rdkit.Chem.rdchem.Mol object at 0x7f5838e13680>, <rdkit.Chem.rdchem.Mol object at 0x7f5838e24900>, <rdkit.Chem.rdchem.Mol object at 0x7f5838e24e40>]","[0, 0, 0, 3628, 3629, 3630, 3631, 3632, 3633, 3634, 3635, 1, 3636, 3637, 3638, 3639, 3640]"
PBDS-TZ,IT-4F,-5.41,-3.46,-5.66875,-4.060416666666667,1.0,CB,16.0,DIO,90.0,12.01,11.78,0.804,73.1,"[<rdkit.Chem.rdchem.Mol object at 0x7f5838e13e60>, <rdkit.Chem.rdchem.Mol object at 0x7f5838e25310>, <rdkit.Chem.rdchem.Mol object at 0x7f5838e110e0>, <rdkit.Chem.rdchem.Mol object at 0x7f5838e25000>, <rdkit.Chem.rdchem.Mol object at 0x7f5838e24f90>, <rdkit.Chem.rdchem.Mol object at 0x7f5838e25700>]","[<rdkit.Chem.rdchem.Mol object at 0x7f5838e24740>, <rdkit.Chem.rdchem.Mol object at 0x7f5838e24190>, <rdkit.Chem.rdchem.Mol object at 0x7f5838e24f20>, <rdkit.Chem.rdchem.Mol object at 0x7f5838e24cf0>, <rdkit.Chem.rdchem.Mol object at 0x7f5838e254d0>]","[<rdkit.Chem.rdchem.Mol object at 0x7f5838e13e60>, <rdkit.Chem.rdchem.Mol object at 0x7f5838e25310>, <rdkit.Chem.rdchem.Mol object at 0x7f5838e110e0>, <rdkit.Chem.rdchem.Mol object at 0x7f5838e25000>, <rdkit.Chem.rdchem.Mol object at 0x7f5838e24f90>, <rdkit.Chem.rdchem.Mol object at 0x7f5838e25700>, '.', <rdkit.Chem.rdchem.Mol object at 0x7f5838e24740>, <rdkit.Chem.rdchem.Mol object at 0x7f5838e24190>, <rdkit.Chem.rdchem.Mol object at 0x7f5838e24f20>, <rdkit.Chem.rdchem.Mol object at 0x7f5838e24cf0>, <rdkit.Chem.rdchem.Mol object at 0x7f5838e254d0>]","[0, 0, 0, 0, 0, 3641, 3642, 3643, 3644, 3645, 3646, 1, 3647, 3648, 3649, 3650, 3651]"
PTB7-Th,Py-1,-5.204782608695651,-3.5391891891891896,-5.79,-3.76,0.667,CF,10.0,_,25.0,5.88,5.82,0.74,65.0,"[<rdkit.Chem.rdchem.Mol object at 0x7f5838e27df0>, <rdkit.Chem.rdchem.Mol object at 0x7f5838e268f0>, <rdkit.Chem.rdchem.Mol object at 0x7f5838e27d80>, <rdkit.Chem.rdchem.Mol object at 0x7f5838e261f0>, <rdkit.Chem.rdchem.Mol object at 0x7f5838e27c30>, <rdkit.Chem.rdchem.Mol object at 0x7f5838e27060>, <rdkit.Chem.rdchem.Mol object at 0x7f5838e271b0>]","[<rdkit.Chem.rdchem.Mol object at 0x7f5838e27a70>, <rdkit.Chem.rdchem.Mol object at 0x7f5838e26dc0>, <rdkit.Chem.rdchem.Mol object at 0x7f5838e278b0>, <rdkit.Chem.rdchem.Mol object at 0x7f5838e27d10>, <rdkit.Chem.rdchem.Mol object at 0x7f5838e26880>]","[<rdkit.Chem.rdchem.Mol object at 0x7f5838e27df0>, <rdkit.Chem.rdchem.Mol object at 0x7f5838e268f0>, <rdkit.Chem.rdchem.Mol object at 0x7f5838e27d80>, <rdkit.Chem.rdchem.Mol object at 0x7f5838e261f0>, <rdkit.Chem.rdchem.Mol object at 0x7f5838e27c30>, <rdkit.Chem.rdchem.Mol object at 0x7f5838e27060>, <rdkit.Chem.rdchem.Mol object at 0x7f5838e271b0>, '.', <rdkit.Chem.rdchem.Mol object at 0x7f5838e27a70>, <rdkit.Chem.rdchem.Mol object at 0x7f5838e26dc0>, <rdkit.Chem.rdchem.Mol object at 0x7f5838e278b0>, <rdkit.Chem.rdchem.Mol object at 0x7f5838e27d10>, <rdkit.Chem.rdchem.Mol object at 0x7f5838e26880>]","[0, 0, 0, 0, 3688, 3689, 3690, 3691, 3692, 3693, 3694, 1, 3695, 3696, 3697, 3698, 3699]"
PTB7-Th,Py-2,-5.204782608695651,-3.5391891891891896,-5.83,-3.78,1.0,CF,10.0,_,25.0,3.47,3.41,0.75,47.0,"[<rdkit.Chem.rdchem.Mol object at 0x7f5838e25f50>, <rdkit.Chem.rdchem.Mol object at 0x7f5838e26730>, <rdkit.Chem.rdchem.Mol object at 0x7f5838e26340>, <rdkit.Chem.rdchem.Mol object at 0x7f5838e25e00>, <rdkit.Chem.rdchem.Mol object at 0x7f5838e26500>, <rdkit.Chem.rdchem.Mol object at 0x7f5838e260a0>, <rdkit.Chem.rdchem.Mol object at 0x7f5838e26810>]","[<rdkit.Chem.rdchem.Mol object at 0x7f5838e267a0>, <rdkit.Chem.rdchem.Mol object at 0x7f5838e26650>, <rdkit.Chem.rdchem.Mol object at 0x7f5838e27ca0>, <rdkit.Chem.rdchem.Mol object at 0x7f5838e27300>, <rdkit.Chem.rdchem.Mol object at 0x7f5838e26ea0>]","[<rdkit.Chem.rdchem.Mol object at 0x7f5838e25f50>, <rdkit.Chem.rdchem.Mol object at 0x7f5838e26730>, <rdkit.Chem.rdchem.Mol object at 0x7f5838e26340>, <rdkit.Chem.rdchem.Mol object at 0x7f5838e25e00>, <rdkit.Chem.rdchem.Mol object at 0x7f5838e26500>, <rdkit.Chem.rdchem.Mol object at 0x7f5838e260a0>, <rdkit.Chem.rdchem.Mol object at 0x7f5838e26810>, '.', <rdkit.Chem.rdchem.Mol object at 0x7f5838e267a0>, <rdkit.Chem.rdchem.Mol object at 0x7f5838e26650>, <rdkit.Chem.rdchem.Mol object at 0x7f5838e27ca0>, <rdkit.Chem.rdchem.Mol object at 0x7f5838e27300>, <rdkit.Chem.rdchem.Mol object at 0x7f5838e26ea0>]","[0, 0, 0, 0, 3700, 3701, 3702, 3703, 3704, 3705, 3706, 1, 3707, 3708, 3709, 3710, 3711]"
PBB-T,IT-2F,-5.4,-3.3,-5.665,-4.095,0.833,CB,15.4,_,150.0,13.3,13.31,0.91,70.0,"[<rdkit.Chem.rdchem.Mol object at 0x7f5838e25850>, <rdkit.Chem.rdchem.Mol object at 0x7f5838e27840>, <rdkit.Chem.rdchem.Mol object at 0x7f5838e263b0>, <rdkit.Chem.rdchem.Mol object at 0x7f5838e26a40>, <rdkit.Chem.rdchem.Mol object at 0x7f5838e27530>, <rdkit.Chem.rdchem.Mol object at 0x7f5838e26b20>, <rdkit.Chem.rdchem.Mol object at 0x7f5838e24b30>, <rdkit.Chem.rdchem.Mol object at 0x7f5838e24ac0>]","[<rdkit.Chem.rdchem.Mol object at 0x7f5838e258c0>, <rdkit.Chem.rdchem.Mol object at 0x7f5838e27a00>, <rdkit.Chem.rdchem.Mol object at 0x7f5838e26030>, <rdkit.Chem.rdchem.Mol object at 0x7f5838e26d50>, <rdkit.Chem.rdchem.Mol object at 0x7f5838e25690>]","[<rdkit.Chem.rdchem.Mol object at 0x7f5838e25850>, <rdkit.Chem.rdchem.Mol object at 0x7f5838e27840>, <rdkit.Chem.rdchem.Mol object at 0x7f5838e263b0>, <rdkit.Chem.rdchem.Mol object at 0x7f5838e26a40>, <rdkit.Chem.rdchem.Mol object at 0x7f5838e27530>, <rdkit.Chem.rdchem.Mol object at 0x7f5838e26b20>, <rdkit.Chem.rdchem.Mol object at 0x7f5838e24b30>, <rdkit.Chem.rdchem.Mol object at 0x7f5838e24ac0>, '.', <rdkit.Chem.rdchem.Mol object at 0x7f5838e258c0>, <rdkit.Chem.rdchem.Mol object at 0x7f5838e27a00>, <rdkit.Chem.rdchem.Mol object at 0x7f5838e26030>, <rdkit.Chem.rdchem.Mol object at 0x7f5838e26d50>, <rdkit.Chem.rdchem.Mol object at 0x7f5838e25690>]","[0, 0, 0, 3712, 3713, 3714, 3715, 3716, 3717, 3718, 3719, 1, 3720, 3721, 3722, 3723, 3724]"