Donor,Acceptor,HOMO_D_eV,LUMO_D_eV,HOMO_A_eV,LUMO_A_eV,D_A_ratio_m_m,solvent,total_solids_conc_mg_mL,solvent_additive,annealing_temperature,PCE_percent,calc_PCE_percent,Voc_V,FF_percent,Donor_BRICS,Acceptor_BRICS,DA_pair_BRICS,DA_tokenized_BRICS
PBDTS-Se-TAZ,ITIC,-5.29,-3.49,-5.574146341463415,-3.915,1.0,CF,16.0,DIO,25.0,12.31,12.31,0.84,75.1,"[<rdkit.Chem.rdchem.Mol object at 0x7f5838ca34c0>, <rdkit.Chem.rdchem.Mol object at 0x7f5838ca60a0>, <rdkit.Chem.rdchem.Mol object at 0x7f5838ca6180>, <rdkit.Chem.rdchem.Mol object at 0x7f5838ca5070>, <rdkit.Chem.rdchem.Mol object at 0x7f5838ca4660>, <rdkit.Chem.rdchem.Mol object at 0x7f5838ca59a0>]","[<rdkit.Chem.rdchem.Mol object at 0x7f5838ca4d60>, <rdkit.Chem.rdchem.Mol object at 0x7f5838ca63b0>, <rdkit.Chem.rdchem.Mol object at 0x7f5838ca4f90>, <rdkit.Chem.rdchem.Mol object at 0x7f5838ca5850>, <rdkit.Chem.rdchem.Mol object at 0x7f5838ca6650>]","[<rdkit.Chem.rdchem.Mol object at 0x7f5838ca34c0>, <rdkit.Chem.rdchem.Mol object at 0x7f5838ca60a0>, <rdkit.Chem.rdchem.Mol object at 0x7f5838ca6180>, <rdkit.Chem.rdchem.Mol object at 0x7f5838ca5070>, <rdkit.Chem.rdchem.Mol object at 0x7f5838ca4660>, <rdkit.Chem.rdchem.Mol object at 0x7f5838ca59a0>, '.', <rdkit.Chem.rdchem.Mol object at 0x7f5838ca4d60>, <rdkit.Chem.rdchem.Mol object at 0x7f5838ca63b0>, <rdkit.Chem.rdchem.Mol object at 0x7f5838ca4f90>, <rdkit.Chem.rdchem.Mol object at 0x7f5838ca5850>, <rdkit.Chem.rdchem.Mol object at 0x7f5838ca6650>]","[0, 0, 0, 0, 0, 5178, 5179, 5180, 5181, 5182, 5183, 1, 5184, 5185, 5186, 5187, 5188]"
PBDB-TF,IT-M,-5.497142857142857,-3.6428571428571423,-5.513571428571429,-3.808,1.0,CB,20.0,DIO,100.0,10.5,10.47,1.02,65.0,"[<rdkit.Chem.rdchem.Mol object at 0x7f5838ca6810>, <rdkit.Chem.rdchem.Mol object at 0x7f5838ca6110>, <rdkit.Chem.rdchem.Mol object at 0x7f5838ca5d90>, <rdkit.Chem.rdchem.Mol object at 0x7f5838ca6570>, <rdkit.Chem.rdchem.Mol object at 0x7f5838ca69d0>, <rdkit.Chem.rdchem.Mol object at 0x7f5838ca7060>]","[<rdkit.Chem.rdchem.Mol object at 0x7f5838ca7290>, <rdkit.Chem.rdchem.Mol object at 0x7f5838ca6880>, <rdkit.Chem.rdchem.Mol object at 0x7f5838ca6c00>, <rdkit.Chem.rdchem.Mol object at 0x7f5838ca6960>, <rdkit.Chem.rdchem.Mol object at 0x7f5838ca58c0>]","[<rdkit.Chem.rdchem.Mol object at 0x7f5838ca6810>, <rdkit.Chem.rdchem.Mol object at 0x7f5838ca6110>, <rdkit.Chem.rdchem.Mol object at 0x7f5838ca5d90>, <rdkit.Chem.rdchem.Mol object at 0x7f5838ca6570>, <rdkit.Chem.rdchem.Mol object at 0x7f5838ca69d0>, <rdkit.Chem.rdchem.Mol object at 0x7f5838ca7060>, '.', <rdkit.Chem.rdchem.Mol object at 0x7f5838ca7290>, <rdkit.Chem.rdchem.Mol object at 0x7f5838ca6880>, <rdkit.Chem.rdchem.Mol object at 0x7f5838ca6c00>, <rdkit.Chem.rdchem.Mol object at 0x7f5838ca6960>, <rdkit.Chem.rdchem.Mol object at 0x7f5838ca58c0>]","[0, 0, 0, 0, 0, 5189, 5190, 5191, 5192, 5193, 5194, 1, 5195, 5196, 5197, 5198, 5199]"
PBDB-TF,IT-4F,-5.497142857142857,-3.6428571428571423,-5.66875,-4.060416666666667,1.0,CB,20.0,DIO,100.0,13.7,13.65,0.87,77.0,"[<rdkit.Chem.rdchem.Mol object at 0x7f5838ca6420>, <rdkit.Chem.rdchem.Mol object at 0x7f5838ca4eb0>, <rdkit.Chem.rdchem.Mol object at 0x7f5838ca6ce0>, <rdkit.Chem.rdchem.Mol object at 0x7f5838ca55b0>, <rdkit.Chem.rdchem.Mol object at 0x7f5838ca6490>, <rdkit.Chem.rdchem.Mol object at 0x7f5838ca6dc0>]","[<rdkit.Chem.rdchem.Mol object at 0x7f5838ca77d0>, <rdkit.Chem.rdchem.Mol object at 0x7f5838ca6340>, <rdkit.Chem.rdchem.Mol object at 0x7f5838ca73e0>, <rdkit.Chem.rdchem.Mol object at 0x7f5838ca67a0>, <rdkit.Chem.rdchem.Mol object at 0x7f5838ca6260>]","[<rdkit.Chem.rdchem.Mol object at 0x7f5838ca6420>, <rdkit.Chem.rdchem.Mol object at 0x7f5838ca4eb0>, <rdkit.Chem.rdchem.Mol object at 0x7f5838ca6ce0>, <rdkit.Chem.rdchem.Mol object at 0x7f5838ca55b0>, <rdkit.Chem.rdchem.Mol object at 0x7f5838ca6490>, <rdkit.Chem.rdchem.Mol object at 0x7f5838ca6dc0>, '.', <rdkit.Chem.rdchem.Mol object at 0x7f5838ca77d0>, <rdkit.Chem.rdchem.Mol object at 0x7f5838ca6340>, <rdkit.Chem.rdchem.Mol object at 0x7f5838ca73e0>, <rdkit.Chem.rdchem.Mol object at 0x7f5838ca67a0>, <rdkit.Chem.rdchem.Mol object at 0x7f5838ca6260>]","[0, 0, 0, 0, 0, 5200, 5201, 5202, 5203, 5204, 5205, 1, 5206, 5207, 5208, 5209, 5210]"
PBDB-T,IF-TN,-5.297714285714285,-3.4170000000000003,-5.8,-3.93,1.0,CB,10.0,CN,80.0,2.89,2.89,1.006,40.95,"[<rdkit.Chem.rdchem.Mol object at 0x7f5838ca42e0>, <rdkit.Chem.rdchem.Mol object at 0x7f5838cb50e0>, <rdkit.Chem.rdchem.Mol object at 0x7f5838cb4740>, <rdkit.Chem.rdchem.Mol object at 0x7f5838cb5540>, <rdkit.Chem.rdchem.Mol object at 0x7f5838cb5ee0>]","[<rdkit.Chem.rdchem.Mol object at 0x7f5838cb4dd0>, <rdkit.Chem.rdchem.Mol object at 0x7f5838cb4f90>, <rdkit.Chem.rdchem.Mol object at 0x7f5838ca6e30>, <rdkit.Chem.rdchem.Mol object at 0x7f5838cb5c40>, <rdkit.Chem.rdchem.Mol object at 0x7f5838cb4eb0>, <rdkit.Chem.rdchem.Mol object at 0x7f5838cb45f0>]","[<rdkit.Chem.rdchem.Mol object at 0x7f5838ca42e0>, <rdkit.Chem.rdchem.Mol object at 0x7f5838cb50e0>, <rdkit.Chem.rdchem.Mol object at 0x7f5838cb4740>, <rdkit.Chem.rdchem.Mol object at 0x7f5838cb5540>, <rdkit.Chem.rdchem.Mol object at 0x7f5838cb5ee0>, '.', <rdkit.Chem.rdchem.Mol object at 0x7f5838cb4dd0>, <rdkit.Chem.rdchem.Mol object at 0x7f5838cb4f90>, <rdkit.Chem.rdchem.Mol object at 0x7f5838ca6e30>, <rdkit.Chem.rdchem.Mol object at 0x7f5838cb5c40>, <rdkit.Chem.rdchem.Mol object at 0x7f5838cb4eb0>, <rdkit.Chem.rdchem.Mol object at 0x7f5838cb45f0>]","[0, 0, 0, 0, 0, 5282, 5283, 5284, 5285, 5286, 1, 5287, 5288, 5289, 5290, 5291, 5292]"
PBDB-T,IDT-TN,-5.297714285714285,-3.4170000000000003,-5.42,-4.03,1.0,CB,10.0,CN,80.0,5.77,5.77,0.967,45.17,"[<rdkit.Chem.rdchem.Mol object at 0x7f5838ca6c70>, <rdkit.Chem.rdchem.Mol object at 0x7f5838cb51c0>, <rdkit.Chem.rdchem.Mol object at 0x7f5838cb5770>, <rdkit.Chem.rdchem.Mol object at 0x7f5838cb5690>, <rdkit.Chem.rdchem.Mol object at 0x7f5838cb6420>]","[<rdkit.Chem.rdchem.Mol object at 0x7f5838cb6570>, <rdkit.Chem.rdchem.Mol object at 0x7f5838cb5cb0>, <rdkit.Chem.rdchem.Mol object at 0x7f5838cb5af0>, <rdkit.Chem.rdchem.Mol object at 0x7f5838cb5070>, <rdkit.Chem.rdchem.Mol object at 0x7f5838cb5620>, <rdkit.Chem.rdchem.Mol object at 0x7f5838cb4350>]","[<rdkit.Chem.rdchem.Mol object at 0x7f5838ca6c70>, <rdkit.Chem.rdchem.Mol object at 0x7f5838cb51c0>, <rdkit.Chem.rdchem.Mol object at 0x7f5838cb5770>, <rdkit.Chem.rdchem.Mol object at 0x7f5838cb5690>, <rdkit.Chem.rdchem.Mol object at 0x7f5838cb6420>, '.', <rdkit.Chem.rdchem.Mol object at 0x7f5838cb6570>, <rdkit.Chem.rdchem.Mol object at 0x7f5838cb5cb0>, <rdkit.Chem.rdchem.Mol object at 0x7f5838cb5af0>, <rdkit.Chem.rdchem.Mol object at 0x7f5838cb5070>, <rdkit.Chem.rdchem.Mol object at 0x7f5838cb5620>, <rdkit.Chem.rdchem.Mol object at 0x7f5838cb4350>]","[0, 0, 0, 0, 0, 5293, 5294, 5295, 5296, 5297, 1, 5298, 5299, 5300, 5301, 5302, 5303]"
PBDB-T,IT-M,-5.297714285714285,-3.4170000000000003,-5.513571428571429,-3.808,1.0,CB,20.0,DIO,25.0,10.31,10.36,0.93,66.77,"[<rdkit.Chem.rdchem.Mol object at 0x7f5838ca6730>, <rdkit.Chem.rdchem.Mol object at 0x7f5838cb5380>, <rdkit.Chem.rdchem.Mol object at 0x7f5838cb53f0>, <rdkit.Chem.rdchem.Mol object at 0x7f5838cb5d20>, <rdkit.Chem.rdchem.Mol object at 0x7f5838cb6960>]","[<rdkit.Chem.rdchem.Mol object at 0x7f5838cb6c70>, <rdkit.Chem.rdchem.Mol object at 0x7f5838cb4900>, <rdkit.Chem.rdchem.Mol object at 0x7f5838cb6030>, <rdkit.Chem.rdchem.Mol object at 0x7f5838cb5850>, <rdkit.Chem.rdchem.Mol object at 0x7f5838cb55b0>]","[<rdkit.Chem.rdchem.Mol object at 0x7f5838ca6730>, <rdkit.Chem.rdchem.Mol object at 0x7f5838cb5380>, <rdkit.Chem.rdchem.Mol object at 0x7f5838cb53f0>, <rdkit.Chem.rdchem.Mol object at 0x7f5838cb5d20>, <rdkit.Chem.rdchem.Mol object at 0x7f5838cb6960>, '.', <rdkit.Chem.rdchem.Mol object at 0x7f5838cb6c70>, <rdkit.Chem.rdchem.Mol object at 0x7f5838cb4900>, <rdkit.Chem.rdchem.Mol object at 0x7f5838cb6030>, <rdkit.Chem.rdchem.Mol object at 0x7f5838cb5850>, <rdkit.Chem.rdchem.Mol object at 0x7f5838cb55b0>]","[0, 0, 0, 0, 0, 0, 5304, 5305, 5306, 5307, 5308, 1, 5309, 5310, 5311, 5312, 5313]"
PBDB-T,ITIC-Cl4,-5.297714285714285,-3.4170000000000003,-5.5,-3.9,1.0,o-DCB,15.0,CN,25.0,9.6,9.55,0.74,60.0,"[<rdkit.Chem.rdchem.Mol object at 0x7f5838ca7840>, <rdkit.Chem.rdchem.Mol object at 0x7f5838cb4c10>, <rdkit.Chem.rdchem.Mol object at 0x7f5838cb58c0>, <rdkit.Chem.rdchem.Mol object at 0x7f5838cb6260>, <rdkit.Chem.rdchem.Mol object at 0x7f5838cb6e30>]","[<rdkit.Chem.rdchem.Mol object at 0x7f5838cb7060>, <rdkit.Chem.rdchem.Mol object at 0x7f5838cb4660>, <rdkit.Chem.rdchem.Mol object at 0x7f5838cb67a0>, <rdkit.Chem.rdchem.Mol object at 0x7f5838cb5b60>, <rdkit.Chem.rdchem.Mol object at 0x7f5838cb4b30>]","[<rdkit.Chem.rdchem.Mol object at 0x7f5838ca7840>, <rdkit.Chem.rdchem.Mol object at 0x7f5838cb4c10>, <rdkit.Chem.rdchem.Mol object at 0x7f5838cb58c0>, <rdkit.Chem.rdchem.Mol object at 0x7f5838cb6260>, <rdkit.Chem.rdchem.Mol object at 0x7f5838cb6e30>, '.', <rdkit.Chem.rdchem.Mol object at 0x7f5838cb7060>, <rdkit.Chem.rdchem.Mol object at 0x7f5838cb4660>, <rdkit.Chem.rdchem.Mol object at 0x7f5838cb67a0>, <rdkit.Chem.rdchem.Mol object at 0x7f5838cb5b60>, <rdkit.Chem.rdchem.Mol object at 0x7f5838cb4b30>]","[0, 0, 0, 0, 0, 0, 5314, 5315, 5316, 5317, 5318, 1, 5319, 5320, 5321, 5322, 5323]"
PBDTS-TzBI,ITIC,-5.39,-3.52,-5.574146341463415,-3.915,1.0,CB,20.0,_,130.0,9.04,8.88,0.94,56.2,"[<rdkit.Chem.rdchem.Mol object at 0x7f5838cb5150>, <rdkit.Chem.rdchem.Mol object at 0x7f5838cb5a80>, <rdkit.Chem.rdchem.Mol object at 0x7f5838cb66c0>, <rdkit.Chem.rdchem.Mol object at 0x7f5838cb6f80>, <rdkit.Chem.rdchem.Mol object at 0x7f5838cb65e0>, <rdkit.Chem.rdchem.Mol object at 0x7f5838cb6b20>, <rdkit.Chem.rdchem.Mol object at 0x7f5838cb6650>, <rdkit.Chem.rdchem.Mol object at 0x7f5838cb6730>]","[<rdkit.Chem.rdchem.Mol object at 0x7f5838cb6f10>, <rdkit.Chem.rdchem.Mol object at 0x7f5838cb4e40>, <rdkit.Chem.rdchem.Mol object at 0x7f5838cb46d0>, <rdkit.Chem.rdchem.Mol object at 0x7f5838cb69d0>, <rdkit.Chem.rdchem.Mol object at 0x7f5838cb63b0>]","[<rdkit.Chem.rdchem.Mol object at 0x7f5838cb5150>, <rdkit.Chem.rdchem.Mol object at 0x7f5838cb5a80>, <rdkit.Chem.rdchem.Mol object at 0x7f5838cb66c0>, <rdkit.Chem.rdchem.Mol object at 0x7f5838cb6f80>, <rdkit.Chem.rdchem.Mol object at 0x7f5838cb65e0>, <rdkit.Chem.rdchem.Mol object at 0x7f5838cb6b20>, <rdkit.Chem.rdchem.Mol object at 0x7f5838cb6650>, <rdkit.Chem.rdchem.Mol object at 0x7f5838cb6730>, '.', <rdkit.Chem.rdchem.Mol object at 0x7f5838cb6f10>, <rdkit.Chem.rdchem.Mol object at 0x7f5838cb4e40>, <rdkit.Chem.rdchem.Mol object at 0x7f5838cb46d0>, <rdkit.Chem.rdchem.Mol object at 0x7f5838cb69d0>, <rdkit.Chem.rdchem.Mol object at 0x7f5838cb63b0>]","[0, 0, 0, 5324, 5325, 5326, 5327, 5328, 5329, 5330, 5331, 1, 5332, 5333, 5334, 5335, 5336]"
PBDB-T,NFBDT-Me,-5.297714285714285,-3.4170000000000003,-5.4,-3.78,1.667,CF,9.6,_,25.0,11.0,11.01,0.909,70.0,"[<rdkit.Chem.rdchem.Mol object at 0x7f5838cb6c00>, <rdkit.Chem.rdchem.Mol object at 0x7f5838cb70d0>, <rdkit.Chem.rdchem.Mol object at 0x7f5838cb74c0>, <rdkit.Chem.rdchem.Mol object at 0x7f5838cb6ea0>, <rdkit.Chem.rdchem.Mol object at 0x7f5838cb7ed0>]","[<rdkit.Chem.rdchem.Mol object at 0x7f5838cb7c30>, <rdkit.Chem.rdchem.Mol object at 0x7f5838cb6ab0>, <rdkit.Chem.rdchem.Mol object at 0x7f5838cb4970>, <rdkit.Chem.rdchem.Mol object at 0x7f5838cb6ce0>, <rdkit.Chem.rdchem.Mol object at 0x7f5838cb7760>]","[<rdkit.Chem.rdchem.Mol object at 0x7f5838cb6c00>, <rdkit.Chem.rdchem.Mol object at 0x7f5838cb70d0>, <rdkit.Chem.rdchem.Mol object at 0x7f5838cb74c0>, <rdkit.Chem.rdchem.Mol object at 0x7f5838cb6ea0>, <rdkit.Chem.rdchem.Mol object at 0x7f5838cb7ed0>, '.', <rdkit.Chem.rdchem.Mol object at 0x7f5838cb7c30>, <rdkit.Chem.rdchem.Mol object at 0x7f5838cb6ab0>, <rdkit.Chem.rdchem.Mol object at 0x7f5838cb4970>, <rdkit.Chem.rdchem.Mol object at 0x7f5838cb6ce0>, <rdkit.Chem.rdchem.Mol object at 0x7f5838cb7760>]","[0, 0, 0, 0, 0, 0, 5350, 5351, 5352, 5353, 5354, 1, 5355, 5356, 5357, 5358, 5359]"
PBDB-T,NFBDT,-5.297714285714285,-3.4170000000000003,-5.400000000000001,-3.83,1.25,CF,9.0,_,25.0,10.42,10.46,0.872,67.2,"[<rdkit.Chem.rdchem.Mol object at 0x7f5838cb76f0>, <rdkit.Chem.rdchem.Mol object at 0x7f5838cb7df0>, <rdkit.Chem.rdchem.Mol object at 0x7f5838cb77d0>, <rdkit.Chem.rdchem.Mol object at 0x7f5838cb6110>, <rdkit.Chem.rdchem.Mol object at 0x7f5838cc4040>]","[<rdkit.Chem.rdchem.Mol object at 0x7f5838cb7b50>, <rdkit.Chem.rdchem.Mol object at 0x7f5838cb62d0>, <rdkit.Chem.rdchem.Mol object at 0x7f5838cb6b90>, <rdkit.Chem.rdchem.Mol object at 0x7f5838cb7990>, <rdkit.Chem.rdchem.Mol object at 0x7f5838cb4f20>]","[<rdkit.Chem.rdchem.Mol object at 0x7f5838cb76f0>, <rdkit.Chem.rdchem.Mol object at 0x7f5838cb7df0>, <rdkit.Chem.rdchem.Mol object at 0x7f5838cb77d0>, <rdkit.Chem.rdchem.Mol object at 0x7f5838cb6110>, <rdkit.Chem.rdchem.Mol object at 0x7f5838cc4040>, '.', <rdkit.Chem.rdchem.Mol object at 0x7f5838cb7b50>, <rdkit.Chem.rdchem.Mol object at 0x7f5838cb62d0>, <rdkit.Chem.rdchem.Mol object at 0x7f5838cb6b90>, <rdkit.Chem.rdchem.Mol object at 0x7f5838cb7990>, <rdkit.Chem.rdchem.Mol object at 0x7f5838cb4f20>]","[0, 0, 0, 0, 0, 0, 5370, 5371, 5372, 5373, 5374, 1, 5375, 5376, 5377, 5378, 5379]"
PBDB-T,SN6IC,-5.297714285714285,-3.4170000000000003,-5.38,-3.93,1.0,CB,20.0,DIO,25.0,9.6,9.58,0.88,66.0,"[<rdkit.Chem.rdchem.Mol object at 0x7f5838cb7a00>, <rdkit.Chem.rdchem.Mol object at 0x7f5838cc4f90>, <rdkit.Chem.rdchem.Mol object at 0x7f5838cc4900>, <rdkit.Chem.rdchem.Mol object at 0x7f5838cc4b30>, <rdkit.Chem.rdchem.Mol object at 0x7f5838cc5310>]","[<rdkit.Chem.rdchem.Mol object at 0x7f5838cb5e70>, <rdkit.Chem.rdchem.Mol object at 0x7f5838cc5380>, <rdkit.Chem.rdchem.Mol object at 0x7f5838cb7bc0>, <rdkit.Chem.rdchem.Mol object at 0x7f5838cb6340>, <rdkit.Chem.rdchem.Mol object at 0x7f5838cc4350>]","[<rdkit.Chem.rdchem.Mol object at 0x7f5838cb7a00>, <rdkit.Chem.rdchem.Mol object at 0x7f5838cc4f90>, <rdkit.Chem.rdchem.Mol object at 0x7f5838cc4900>, <rdkit.Chem.rdchem.Mol object at 0x7f5838cc4b30>, <rdkit.Chem.rdchem.Mol object at 0x7f5838cc5310>, '.', <rdkit.Chem.rdchem.Mol object at 0x7f5838cb5e70>, <rdkit.Chem.rdchem.Mol object at 0x7f5838cc5380>, <rdkit.Chem.rdchem.Mol object at 0x7f5838cb7bc0>, <rdkit.Chem.rdchem.Mol object at 0x7f5838cb6340>, <rdkit.Chem.rdchem.Mol object at 0x7f5838cc4350>]","[0, 0, 0, 0, 0, 0, 5390, 5391, 5392, 5393, 5394, 1, 5395, 5396, 5397, 5398, 5399]"
PTB7-Th,IDTT-T,-5.204782608695651,-3.5391891891891896,-5.51,-3.51,0.5,CB,25.0,_,25.0,9.1,9.08,1.015,57.0,"[<rdkit.Chem.rdchem.Mol object at 0x7f5838cb78b0>, <rdkit.Chem.rdchem.Mol object at 0x7f5838cc5bd0>, <rdkit.Chem.rdchem.Mol object at 0x7f5838cc5c40>, <rdkit.Chem.rdchem.Mol object at 0x7f5838cc50e0>, <rdkit.Chem.rdchem.Mol object at 0x7f5838cc49e0>, <rdkit.Chem.rdchem.Mol object at 0x7f5838cc45f0>, <rdkit.Chem.rdchem.Mol object at 0x7f5838cc59a0>]","[<rdkit.Chem.rdchem.Mol object at 0x7f5838cc5af0>, <rdkit.Chem.rdchem.Mol object at 0x7f5838cc5070>, <rdkit.Chem.rdchem.Mol object at 0x7f5838cc5690>, <rdkit.Chem.rdchem.Mol object at 0x7f5838cc4d60>, <rdkit.Chem.rdchem.Mol object at 0x7f5838cc5930>]","[<rdkit.Chem.rdchem.Mol object at 0x7f5838cb78b0>, <rdkit.Chem.rdchem.Mol object at 0x7f5838cc5bd0>, <rdkit.Chem.rdchem.Mol object at 0x7f5838cc5c40>, <rdkit.Chem.rdchem.Mol object at 0x7f5838cc50e0>, <rdkit.Chem.rdchem.Mol object at 0x7f5838cc49e0>, <rdkit.Chem.rdchem.Mol object at 0x7f5838cc45f0>, <rdkit.Chem.rdchem.Mol object at 0x7f5838cc59a0>, '.', <rdkit.Chem.rdchem.Mol object at 0x7f5838cc5af0>, <rdkit.Chem.rdchem.Mol object at 0x7f5838cc5070>, <rdkit.Chem.rdchem.Mol object at 0x7f5838cc5690>, <rdkit.Chem.rdchem.Mol object at 0x7f5838cc4d60>, <rdkit.Chem.rdchem.Mol object at 0x7f5838cc5930>]","[0, 0, 0, 0, 5422, 5423, 5424, 5425, 5426, 5427, 5428, 1, 5429, 5430, 5431, 5432, 5433]"
PBDB-T,IDT-IC,-5.297714285714285,-3.4170000000000003,-5.693333333333334,-3.866666666666666,1.0,DCB,8.0,_,25.0,4.69,4.29,0.83,49.0,"[<rdkit.Chem.rdchem.Mol object at 0x7f5838cc51c0>, <rdkit.Chem.rdchem.Mol object at 0x7f5838cc4510>, <rdkit.Chem.rdchem.Mol object at 0x7f5838cc6d50>, <rdkit.Chem.rdchem.Mol object at 0x7f5838cc61f0>, <rdkit.Chem.rdchem.Mol object at 0x7f5838cc71b0>]","[<rdkit.Chem.rdchem.Mol object at 0x7f5838cc73e0>, <rdkit.Chem.rdchem.Mol object at 0x7f5838cc4740>, <rdkit.Chem.rdchem.Mol object at 0x7f5838cc6f10>, <rdkit.Chem.rdchem.Mol object at 0x7f5838cc62d0>, <rdkit.Chem.rdchem.Mol object at 0x7f5838cc6260>]","[<rdkit.Chem.rdchem.Mol object at 0x7f5838cc51c0>, <rdkit.Chem.rdchem.Mol object at 0x7f5838cc4510>, <rdkit.Chem.rdchem.Mol object at 0x7f5838cc6d50>, <rdkit.Chem.rdchem.Mol object at 0x7f5838cc61f0>, <rdkit.Chem.rdchem.Mol object at 0x7f5838cc71b0>, '.', <rdkit.Chem.rdchem.Mol object at 0x7f5838cc73e0>, <rdkit.Chem.rdchem.Mol object at 0x7f5838cc4740>, <rdkit.Chem.rdchem.Mol object at 0x7f5838cc6f10>, <rdkit.Chem.rdchem.Mol object at 0x7f5838cc62d0>, <rdkit.Chem.rdchem.Mol object at 0x7f5838cc6260>]","[0, 0, 0, 0, 0, 0, 5454, 5455, 5456, 5457, 5458, 1, 5459, 5460, 5461, 5462, 5463]"
PBDB-T,O-NTIC,-5.297714285714285,-3.4170000000000003,-5.51,-3.67,1.25,CB,19.9,DIO,25.0,9.1,9.1,0.978,69.9,"[<rdkit.Chem.rdchem.Mol object at 0x7f5838cc4890>, <rdkit.Chem.rdchem.Mol object at 0x7f5838cc6f80>, <rdkit.Chem.rdchem.Mol object at 0x7f5838cc6730>, <rdkit.Chem.rdchem.Mol object at 0x7f5838cc66c0>, <rdkit.Chem.rdchem.Mol object at 0x7f5838cc7680>]","[<rdkit.Chem.rdchem.Mol object at 0x7f5838cc7450>, <rdkit.Chem.rdchem.Mol object at 0x7f5838cc75a0>, <rdkit.Chem.rdchem.Mol object at 0x7f5838cc6340>, <rdkit.Chem.rdchem.Mol object at 0x7f5838cc7140>, <rdkit.Chem.rdchem.Mol object at 0x7f5838cc5b60>, <rdkit.Chem.rdchem.Mol object at 0x7f5838cc43c0>]","[<rdkit.Chem.rdchem.Mol object at 0x7f5838cc4890>, <rdkit.Chem.rdchem.Mol object at 0x7f5838cc6f80>, <rdkit.Chem.rdchem.Mol object at 0x7f5838cc6730>, <rdkit.Chem.rdchem.Mol object at 0x7f5838cc66c0>, <rdkit.Chem.rdchem.Mol object at 0x7f5838cc7680>, '.', <rdkit.Chem.rdchem.Mol object at 0x7f5838cc7450>, <rdkit.Chem.rdchem.Mol object at 0x7f5838cc75a0>, <rdkit.Chem.rdchem.Mol object at 0x7f5838cc6340>, <rdkit.Chem.rdchem.Mol object at 0x7f5838cc7140>, <rdkit.Chem.rdchem.Mol object at 0x7f5838cc5b60>, <rdkit.Chem.rdchem.Mol object at 0x7f5838cc43c0>]","[0, 0, 0, 0, 0, 5464, 5465, 5466, 5467, 5468, 1, 5469, 5470, 5471, 5472, 5473, 5474]"
PBDB-T,O-NTNC,-5.297714285714285,-3.4170000000000003,-5.54,-3.78,1.25,CB,19.9,DIO,25.0,11.04,11.05,0.942,73.4,"[<rdkit.Chem.rdchem.Mol object at 0x7f5838cc6110>, <rdkit.Chem.rdchem.Mol object at 0x7f5838cc5cb0>, <rdkit.Chem.rdchem.Mol object at 0x7f5838cc5000>, <rdkit.Chem.rdchem.Mol object at 0x7f5838cc7300>, <rdkit.Chem.rdchem.Mol object at 0x7f5838cc7bc0>]","[<rdkit.Chem.rdchem.Mol object at 0x7f5838cc6490>, <rdkit.Chem.rdchem.Mol object at 0x7f5838cc7760>, <rdkit.Chem.rdchem.Mol object at 0x7f5838cc5770>, <rdkit.Chem.rdchem.Mol object at 0x7f5838cc7a00>, <rdkit.Chem.rdchem.Mol object at 0x7f5838cc57e0>, <rdkit.Chem.rdchem.Mol object at 0x7f5838cc69d0>]","[<rdkit.Chem.rdchem.Mol object at 0x7f5838cc6110>, <rdkit.Chem.rdchem.Mol object at 0x7f5838cc5cb0>, <rdkit.Chem.rdchem.Mol object at 0x7f5838cc5000>, <rdkit.Chem.rdchem.Mol object at 0x7f5838cc7300>, <rdkit.Chem.rdchem.Mol object at 0x7f5838cc7bc0>, '.', <rdkit.Chem.rdchem.Mol object at 0x7f5838cc6490>, <rdkit.Chem.rdchem.Mol object at 0x7f5838cc7760>, <rdkit.Chem.rdchem.Mol object at 0x7f5838cc5770>, <rdkit.Chem.rdchem.Mol object at 0x7f5838cc7a00>, <rdkit.Chem.rdchem.Mol object at 0x7f5838cc57e0>, <rdkit.Chem.rdchem.Mol object at 0x7f5838cc69d0>]","[0, 0, 0, 0, 0, 5475, 5476, 5477, 5478, 5479, 1, 5480, 5481, 5482, 5483, 5484, 5485]"