Donor,Acceptor,HOMO_D_eV,LUMO_D_eV,HOMO_A_eV,LUMO_A_eV,D_A_ratio_m_m,solvent,total_solids_conc_mg_mL,solvent_additive,annealing_temperature,PCE_percent,calc_PCE_percent,Voc_V,FF_percent,Donor_BRICS,Acceptor_BRICS,DA_pair_BRICS,DA_tokenized_BRICS
PFBDB-T,C8-ITIC,-5.47,-3.46,-5.63,-3.91,0.8,CB,20.0,_,25.0,12.5,12.57,0.93,69.0,"[<rdkit.Chem.rdchem.Mol object at 0x7f5838e265e0>, <rdkit.Chem.rdchem.Mol object at 0x7f5838e27290>, <rdkit.Chem.rdchem.Mol object at 0x7f5838e25ee0>, <rdkit.Chem.rdchem.Mol object at 0x7f5838e26420>, <rdkit.Chem.rdchem.Mol object at 0x7f5838e25d20>, <rdkit.Chem.rdchem.Mol object at 0x7f5838e2c430>]","[<rdkit.Chem.rdchem.Mol object at 0x7f5838e26180>, <rdkit.Chem.rdchem.Mol object at 0x7f5838e27bc0>, <rdkit.Chem.rdchem.Mol object at 0x7f5838e25a10>, <rdkit.Chem.rdchem.Mol object at 0x7f5838e26e30>, <rdkit.Chem.rdchem.Mol object at 0x7f5838e27140>]","[<rdkit.Chem.rdchem.Mol object at 0x7f5838e265e0>, <rdkit.Chem.rdchem.Mol object at 0x7f5838e27290>, <rdkit.Chem.rdchem.Mol object at 0x7f5838e25ee0>, <rdkit.Chem.rdchem.Mol object at 0x7f5838e26420>, <rdkit.Chem.rdchem.Mol object at 0x7f5838e25d20>, <rdkit.Chem.rdchem.Mol object at 0x7f5838e2c430>, '.', <rdkit.Chem.rdchem.Mol object at 0x7f5838e26180>, <rdkit.Chem.rdchem.Mol object at 0x7f5838e27bc0>, <rdkit.Chem.rdchem.Mol object at 0x7f5838e25a10>, <rdkit.Chem.rdchem.Mol object at 0x7f5838e26e30>, <rdkit.Chem.rdchem.Mol object at 0x7f5838e27140>]","[0, 0, 0, 0, 0, 3725, 3726, 3727, 3728, 3729, 3730, 1, 3731, 3732, 3733, 3734, 3735]"
P_TBTT-BTT,ICz-Rd2,-5.15,-3.58,-5.59,-3.88,1.0,CF,15.0,_,40.0,7.88,7.88,1.04,54.0,"[<rdkit.Chem.rdchem.Mol object at 0x7f5838e27370>, <rdkit.Chem.rdchem.Mol object at 0x7f5838e25070>, <rdkit.Chem.rdchem.Mol object at 0x7f5838e27e60>, <rdkit.Chem.rdchem.Mol object at 0x7f5838e274c0>, <rdkit.Chem.rdchem.Mol object at 0x7f5838e27610>]","[<rdkit.Chem.rdchem.Mol object at 0x7f5838e276f0>, <rdkit.Chem.rdchem.Mol object at 0x7f5838e266c0>, <rdkit.Chem.rdchem.Mol object at 0x7f5838e255b0>, <rdkit.Chem.rdchem.Mol object at 0x7f5838e270d0>, <rdkit.Chem.rdchem.Mol object at 0x7f5838e269d0>, <rdkit.Chem.rdchem.Mol object at 0x7f5838e25c40>]","[<rdkit.Chem.rdchem.Mol object at 0x7f5838e27370>, <rdkit.Chem.rdchem.Mol object at 0x7f5838e25070>, <rdkit.Chem.rdchem.Mol object at 0x7f5838e27e60>, <rdkit.Chem.rdchem.Mol object at 0x7f5838e274c0>, <rdkit.Chem.rdchem.Mol object at 0x7f5838e27610>, '.', <rdkit.Chem.rdchem.Mol object at 0x7f5838e276f0>, <rdkit.Chem.rdchem.Mol object at 0x7f5838e266c0>, <rdkit.Chem.rdchem.Mol object at 0x7f5838e255b0>, <rdkit.Chem.rdchem.Mol object at 0x7f5838e270d0>, <rdkit.Chem.rdchem.Mol object at 0x7f5838e269d0>, <rdkit.Chem.rdchem.Mol object at 0x7f5838e25c40>]","[0, 0, 0, 0, 0, 3736, 3737, 3738, 3739, 3740, 1, 3741, 3742, 3743, 3744, 3745, 3746]"
P_TBTT-BTT,ICz-RdCN2,-5.15,-3.58,-5.58,-3.98,1.0,CF,15.0,_,40.0,9.76,9.76,1.01,62.0,"[<rdkit.Chem.rdchem.Mol object at 0x7f5838e26f10>, <rdkit.Chem.rdchem.Mol object at 0x7f5838e24430>, <rdkit.Chem.rdchem.Mol object at 0x7f5838e247b0>, <rdkit.Chem.rdchem.Mol object at 0x7f5838e2c040>, <rdkit.Chem.rdchem.Mol object at 0x7f5838e2c5f0>]","[<rdkit.Chem.rdchem.Mol object at 0x7f5838e25fc0>, <rdkit.Chem.rdchem.Mol object at 0x7f5838e25d90>, <rdkit.Chem.rdchem.Mol object at 0x7f5838e243c0>, <rdkit.Chem.rdchem.Mol object at 0x7f5838e25cb0>]","[<rdkit.Chem.rdchem.Mol object at 0x7f5838e26f10>, <rdkit.Chem.rdchem.Mol object at 0x7f5838e24430>, <rdkit.Chem.rdchem.Mol object at 0x7f5838e247b0>, <rdkit.Chem.rdchem.Mol object at 0x7f5838e2c040>, <rdkit.Chem.rdchem.Mol object at 0x7f5838e2c5f0>, '.', <rdkit.Chem.rdchem.Mol object at 0x7f5838e25fc0>, <rdkit.Chem.rdchem.Mol object at 0x7f5838e25d90>, <rdkit.Chem.rdchem.Mol object at 0x7f5838e243c0>, <rdkit.Chem.rdchem.Mol object at 0x7f5838e25cb0>]","[0, 0, 0, 0, 0, 0, 0, 3747, 3748, 3749, 3750, 3751, 1, 3752, 3753, 3754, 3755]"
PBZ,IT-4F,-5.18,-3.22,-5.66875,-4.060416666666667,1.0,Toluene,20.0,PN,25.0,6.4,6.45,0.6,63.2,"[<rdkit.Chem.rdchem.Mol object at 0x7f5838e25150>, <rdkit.Chem.rdchem.Mol object at 0x7f5838e27220>, <rdkit.Chem.rdchem.Mol object at 0x7f5838e2c740>, <rdkit.Chem.rdchem.Mol object at 0x7f5838e2c580>, <rdkit.Chem.rdchem.Mol object at 0x7f5838e2c6d0>, <rdkit.Chem.rdchem.Mol object at 0x7f5838e2cf90>]","[<rdkit.Chem.rdchem.Mol object at 0x7f5838e24200>, <rdkit.Chem.rdchem.Mol object at 0x7f5838e2c9e0>, <rdkit.Chem.rdchem.Mol object at 0x7f5838e27ed0>, <rdkit.Chem.rdchem.Mol object at 0x7f5838e2cdd0>, <rdkit.Chem.rdchem.Mol object at 0x7f5838e2c7b0>]","[<rdkit.Chem.rdchem.Mol object at 0x7f5838e25150>, <rdkit.Chem.rdchem.Mol object at 0x7f5838e27220>, <rdkit.Chem.rdchem.Mol object at 0x7f5838e2c740>, <rdkit.Chem.rdchem.Mol object at 0x7f5838e2c580>, <rdkit.Chem.rdchem.Mol object at 0x7f5838e2c6d0>, <rdkit.Chem.rdchem.Mol object at 0x7f5838e2cf90>, '.', <rdkit.Chem.rdchem.Mol object at 0x7f5838e24200>, <rdkit.Chem.rdchem.Mol object at 0x7f5838e2c9e0>, <rdkit.Chem.rdchem.Mol object at 0x7f5838e27ed0>, <rdkit.Chem.rdchem.Mol object at 0x7f5838e2cdd0>, <rdkit.Chem.rdchem.Mol object at 0x7f5838e2c7b0>]","[0, 0, 0, 0, 0, 3756, 3757, 3758, 3759, 3760, 3761, 1, 3762, 3763, 3764, 3765, 3766]"
PBZ-Cl,IT-4F,-5.39,-3.41,-5.66875,-4.060416666666667,1.0,Toluene,20.0,PN,25.0,9.7,9.67,0.8,68.3,"[<rdkit.Chem.rdchem.Mol object at 0x7f5838e253f0>, <rdkit.Chem.rdchem.Mol object at 0x7f5838e251c0>, <rdkit.Chem.rdchem.Mol object at 0x7f5838e2ceb0>, <rdkit.Chem.rdchem.Mol object at 0x7f5838e2ce40>, <rdkit.Chem.rdchem.Mol object at 0x7f5838e24c10>, <rdkit.Chem.rdchem.Mol object at 0x7f5838e2c510>, <rdkit.Chem.rdchem.Mol object at 0x7f5838e2d310>]","[<rdkit.Chem.rdchem.Mol object at 0x7f5838e2cd60>, <rdkit.Chem.rdchem.Mol object at 0x7f5838e2d150>, <rdkit.Chem.rdchem.Mol object at 0x7f5838e26960>, <rdkit.Chem.rdchem.Mol object at 0x7f5838e2c0b0>, <rdkit.Chem.rdchem.Mol object at 0x7f5838e2ca50>]","[<rdkit.Chem.rdchem.Mol object at 0x7f5838e253f0>, <rdkit.Chem.rdchem.Mol object at 0x7f5838e251c0>, <rdkit.Chem.rdchem.Mol object at 0x7f5838e2ceb0>, <rdkit.Chem.rdchem.Mol object at 0x7f5838e2ce40>, <rdkit.Chem.rdchem.Mol object at 0x7f5838e24c10>, <rdkit.Chem.rdchem.Mol object at 0x7f5838e2c510>, <rdkit.Chem.rdchem.Mol object at 0x7f5838e2d310>, '.', <rdkit.Chem.rdchem.Mol object at 0x7f5838e2cd60>, <rdkit.Chem.rdchem.Mol object at 0x7f5838e2d150>, <rdkit.Chem.rdchem.Mol object at 0x7f5838e26960>, <rdkit.Chem.rdchem.Mol object at 0x7f5838e2c0b0>, <rdkit.Chem.rdchem.Mol object at 0x7f5838e2ca50>]","[0, 0, 0, 0, 3767, 3768, 3769, 3770, 3771, 3772, 3773, 1, 3774, 3775, 3776, 3777, 3778]"
PBZ-ClSi,IT-4F,-5.56,-3.5,-5.66875,-4.060416666666667,1.0,Toluene,20.0,PN,25.0,12.8,12.77,0.93,71.5,"[<rdkit.Chem.rdchem.Mol object at 0x7f5838e26490>, <rdkit.Chem.rdchem.Mol object at 0x7f5838e2cb30>, <rdkit.Chem.rdchem.Mol object at 0x7f5838e2d4d0>, <rdkit.Chem.rdchem.Mol object at 0x7f5838e2d460>, <rdkit.Chem.rdchem.Mol object at 0x7f5838e2d230>, <rdkit.Chem.rdchem.Mol object at 0x7f5838e2c900>]","[<rdkit.Chem.rdchem.Mol object at 0x7f5838e2d3f0>, <rdkit.Chem.rdchem.Mol object at 0x7f5838e2c190>, <rdkit.Chem.rdchem.Mol object at 0x7f5838e2cac0>, <rdkit.Chem.rdchem.Mol object at 0x7f5838e2cba0>, <rdkit.Chem.rdchem.Mol object at 0x7f5838e2d380>]","[<rdkit.Chem.rdchem.Mol object at 0x7f5838e26490>, <rdkit.Chem.rdchem.Mol object at 0x7f5838e2cb30>, <rdkit.Chem.rdchem.Mol object at 0x7f5838e2d4d0>, <rdkit.Chem.rdchem.Mol object at 0x7f5838e2d460>, <rdkit.Chem.rdchem.Mol object at 0x7f5838e2d230>, <rdkit.Chem.rdchem.Mol object at 0x7f5838e2c900>, '.', <rdkit.Chem.rdchem.Mol object at 0x7f5838e2d3f0>, <rdkit.Chem.rdchem.Mol object at 0x7f5838e2c190>, <rdkit.Chem.rdchem.Mol object at 0x7f5838e2cac0>, <rdkit.Chem.rdchem.Mol object at 0x7f5838e2cba0>, <rdkit.Chem.rdchem.Mol object at 0x7f5838e2d380>]","[0, 0, 0, 0, 0, 3779, 3780, 3781, 3782, 3783, 3784, 1, 3785, 3786, 3787, 3788, 3789]"
PT2,ITIC,-5.35,-3.58,-5.574146341463415,-3.915,0.667,CB,20.0,_,25.0,9.0,8.78,0.84,64.0,"[<rdkit.Chem.rdchem.Mol object at 0x7f5838e259a0>, <rdkit.Chem.rdchem.Mol object at 0x7f5838e2dd20>, <rdkit.Chem.rdchem.Mol object at 0x7f5838e2dcb0>, <rdkit.Chem.rdchem.Mol object at 0x7f5838e2d850>, <rdkit.Chem.rdchem.Mol object at 0x7f5838e2dfc0>, <rdkit.Chem.rdchem.Mol object at 0x7f5838e2ea40>]","[<rdkit.Chem.rdchem.Mol object at 0x7f5838e2e9d0>, <rdkit.Chem.rdchem.Mol object at 0x7f5838e2e340>, <rdkit.Chem.rdchem.Mol object at 0x7f5838e2e2d0>, <rdkit.Chem.rdchem.Mol object at 0x7f5838e2e110>, <rdkit.Chem.rdchem.Mol object at 0x7f5838e2c970>]","[<rdkit.Chem.rdchem.Mol object at 0x7f5838e259a0>, <rdkit.Chem.rdchem.Mol object at 0x7f5838e2dd20>, <rdkit.Chem.rdchem.Mol object at 0x7f5838e2dcb0>, <rdkit.Chem.rdchem.Mol object at 0x7f5838e2d850>, <rdkit.Chem.rdchem.Mol object at 0x7f5838e2dfc0>, <rdkit.Chem.rdchem.Mol object at 0x7f5838e2ea40>, '.', <rdkit.Chem.rdchem.Mol object at 0x7f5838e2e9d0>, <rdkit.Chem.rdchem.Mol object at 0x7f5838e2e340>, <rdkit.Chem.rdchem.Mol object at 0x7f5838e2e2d0>, <rdkit.Chem.rdchem.Mol object at 0x7f5838e2e110>, <rdkit.Chem.rdchem.Mol object at 0x7f5838e2c970>]","[0, 0, 0, 0, 0, 3800, 3801, 3802, 3803, 3804, 3805, 1, 3806, 3807, 3808, 3809, 3810]"
PT3,ITIC,-5.37,-3.54,-5.574146341463415,-3.915,0.667,CB,20.0,_,25.0,9.21,9.29,0.88,68.0,"[<rdkit.Chem.rdchem.Mol object at 0x7f5838e25af0>, <rdkit.Chem.rdchem.Mol object at 0x7f5838e2dc40>, <rdkit.Chem.rdchem.Mol object at 0x7f5838e2dbd0>, <rdkit.Chem.rdchem.Mol object at 0x7f5838e2f220>, <rdkit.Chem.rdchem.Mol object at 0x7f5838e2f300>, <rdkit.Chem.rdchem.Mol object at 0x7f5838e2f840>, <rdkit.Chem.rdchem.Mol object at 0x7f5838e2fa70>, <rdkit.Chem.rdchem.Mol object at 0x7f5838e34350>]","[<rdkit.Chem.rdchem.Mol object at 0x7f5838e2fae0>, <rdkit.Chem.rdchem.Mol object at 0x7f5838e2f760>, <rdkit.Chem.rdchem.Mol object at 0x7f5838e2f990>, <rdkit.Chem.rdchem.Mol object at 0x7f5838e2f8b0>, <rdkit.Chem.rdchem.Mol object at 0x7f5838e2f140>]","[<rdkit.Chem.rdchem.Mol object at 0x7f5838e25af0>, <rdkit.Chem.rdchem.Mol object at 0x7f5838e2dc40>, <rdkit.Chem.rdchem.Mol object at 0x7f5838e2dbd0>, <rdkit.Chem.rdchem.Mol object at 0x7f5838e2f220>, <rdkit.Chem.rdchem.Mol object at 0x7f5838e2f300>, <rdkit.Chem.rdchem.Mol object at 0x7f5838e2f840>, <rdkit.Chem.rdchem.Mol object at 0x7f5838e2fa70>, <rdkit.Chem.rdchem.Mol object at 0x7f5838e34350>, '.', <rdkit.Chem.rdchem.Mol object at 0x7f5838e2fae0>, <rdkit.Chem.rdchem.Mol object at 0x7f5838e2f760>, <rdkit.Chem.rdchem.Mol object at 0x7f5838e2f990>, <rdkit.Chem.rdchem.Mol object at 0x7f5838e2f8b0>, <rdkit.Chem.rdchem.Mol object at 0x7f5838e2f140>]","[0, 0, 0, 3811, 3812, 3813, 3814, 3815, 3816, 3817, 3818, 1, 3819, 3820, 3821, 3822, 3823]"
PBDB-T,DF-TCIC,-5.297714285714285,-3.4170000000000003,-5.37,-3.76,0.833,CF,15.0,CN,140.0,8.23,8.18,0.86,58.0,"[<rdkit.Chem.rdchem.Mol object at 0x7f5838e2edc0>, <rdkit.Chem.rdchem.Mol object at 0x7f5838e2fca0>, <rdkit.Chem.rdchem.Mol object at 0x7f5838e2fa00>, <rdkit.Chem.rdchem.Mol object at 0x7f5838e2eff0>, <rdkit.Chem.rdchem.Mol object at 0x7f5838e2c890>]","[<rdkit.Chem.rdchem.Mol object at 0x7f5838e2d620>, <rdkit.Chem.rdchem.Mol object at 0x7f5838e2e5e0>, <rdkit.Chem.rdchem.Mol object at 0x7f5838e2f5a0>, <rdkit.Chem.rdchem.Mol object at 0x7f5838e2fe60>, <rdkit.Chem.rdchem.Mol object at 0x7f5838e2ed50>]","[<rdkit.Chem.rdchem.Mol object at 0x7f5838e2edc0>, <rdkit.Chem.rdchem.Mol object at 0x7f5838e2fca0>, <rdkit.Chem.rdchem.Mol object at 0x7f5838e2fa00>, <rdkit.Chem.rdchem.Mol object at 0x7f5838e2eff0>, <rdkit.Chem.rdchem.Mol object at 0x7f5838e2c890>, '.', <rdkit.Chem.rdchem.Mol object at 0x7f5838e2d620>, <rdkit.Chem.rdchem.Mol object at 0x7f5838e2e5e0>, <rdkit.Chem.rdchem.Mol object at 0x7f5838e2f5a0>, <rdkit.Chem.rdchem.Mol object at 0x7f5838e2fe60>, <rdkit.Chem.rdchem.Mol object at 0x7f5838e2ed50>]","[0, 0, 0, 0, 0, 0, 3824, 3825, 3826, 3827, 3828, 1, 3829, 3830, 3831, 3832, 3833]"
BO2FC8,m-ITIC-OR-4Cl,-5.5,-3.6,-5.78,-4.05,0.667,CB,15.0,_,150.0,11.0,10.61,0.83,63.3,"[<rdkit.Chem.rdchem.Mol object at 0x7f5838e2ef80>, <rdkit.Chem.rdchem.Mol object at 0x7f5838e2f060>, <rdkit.Chem.rdchem.Mol object at 0x7f5838e2d8c0>, <rdkit.Chem.rdchem.Mol object at 0x7f5838e2f1b0>, <rdkit.Chem.rdchem.Mol object at 0x7f5838e2ec70>, <rdkit.Chem.rdchem.Mol object at 0x7f5838e2cf20>, <rdkit.Chem.rdchem.Mol object at 0x7f5838e2f680>, <rdkit.Chem.rdchem.Mol object at 0x7f5838e2e570>]","[<rdkit.Chem.rdchem.Mol object at 0x7f5838e2e1f0>, <rdkit.Chem.rdchem.Mol object at 0x7f5838e2e8f0>, <rdkit.Chem.rdchem.Mol object at 0x7f5838e2f530>, <rdkit.Chem.rdchem.Mol object at 0x7f5838e2f370>, <rdkit.Chem.rdchem.Mol object at 0x7f5838e2e880>, <rdkit.Chem.rdchem.Mol object at 0x7f5838e2f920>]","[<rdkit.Chem.rdchem.Mol object at 0x7f5838e2ef80>, <rdkit.Chem.rdchem.Mol object at 0x7f5838e2f060>, <rdkit.Chem.rdchem.Mol object at 0x7f5838e2d8c0>, <rdkit.Chem.rdchem.Mol object at 0x7f5838e2f1b0>, <rdkit.Chem.rdchem.Mol object at 0x7f5838e2ec70>, <rdkit.Chem.rdchem.Mol object at 0x7f5838e2cf20>, <rdkit.Chem.rdchem.Mol object at 0x7f5838e2f680>, <rdkit.Chem.rdchem.Mol object at 0x7f5838e2e570>, '.', <rdkit.Chem.rdchem.Mol object at 0x7f5838e2e1f0>, <rdkit.Chem.rdchem.Mol object at 0x7f5838e2e8f0>, <rdkit.Chem.rdchem.Mol object at 0x7f5838e2f530>, <rdkit.Chem.rdchem.Mol object at 0x7f5838e2f370>, <rdkit.Chem.rdchem.Mol object at 0x7f5838e2e880>, <rdkit.Chem.rdchem.Mol object at 0x7f5838e2f920>]","[0, 0, 3844, 3845, 3846, 3847, 3848, 3849, 3850, 3851, 1, 3852, 3853, 3854, 3855, 3856, 3857]"
BO2FEH,m-ITIC-OR-4Cl,-5.59,-3.59,-5.78,-4.05,0.667,CB,15.0,_,150.0,6.4,6.15,0.88,48.5,"[<rdkit.Chem.rdchem.Mol object at 0x7f5838e2d000>, <rdkit.Chem.rdchem.Mol object at 0x7f5838e2c270>, <rdkit.Chem.rdchem.Mol object at 0x7f5838e2da80>, <rdkit.Chem.rdchem.Mol object at 0x7f5838e2e730>, <rdkit.Chem.rdchem.Mol object at 0x7f5838e2f290>, <rdkit.Chem.rdchem.Mol object at 0x7f5838e2daf0>, <rdkit.Chem.rdchem.Mol object at 0x7f5838e2fd80>, <rdkit.Chem.rdchem.Mol object at 0x7f5838e2d070>]","[<rdkit.Chem.rdchem.Mol object at 0x7f5838e2c200>, <rdkit.Chem.rdchem.Mol object at 0x7f5838e2cc80>, <rdkit.Chem.rdchem.Mol object at 0x7f5838e2f7d0>, <rdkit.Chem.rdchem.Mol object at 0x7f5838e2dd90>, <rdkit.Chem.rdchem.Mol object at 0x7f5838e2ef10>, <rdkit.Chem.rdchem.Mol object at 0x7f5838e2de00>]","[<rdkit.Chem.rdchem.Mol object at 0x7f5838e2d000>, <rdkit.Chem.rdchem.Mol object at 0x7f5838e2c270>, <rdkit.Chem.rdchem.Mol object at 0x7f5838e2da80>, <rdkit.Chem.rdchem.Mol object at 0x7f5838e2e730>, <rdkit.Chem.rdchem.Mol object at 0x7f5838e2f290>, <rdkit.Chem.rdchem.Mol object at 0x7f5838e2daf0>, <rdkit.Chem.rdchem.Mol object at 0x7f5838e2fd80>, <rdkit.Chem.rdchem.Mol object at 0x7f5838e2d070>, '.', <rdkit.Chem.rdchem.Mol object at 0x7f5838e2c200>, <rdkit.Chem.rdchem.Mol object at 0x7f5838e2cc80>, <rdkit.Chem.rdchem.Mol object at 0x7f5838e2f7d0>, <rdkit.Chem.rdchem.Mol object at 0x7f5838e2dd90>, <rdkit.Chem.rdchem.Mol object at 0x7f5838e2ef10>, <rdkit.Chem.rdchem.Mol object at 0x7f5838e2de00>]","[0, 0, 3858, 3859, 3860, 3861, 3862, 3863, 3864, 3865, 1, 3866, 3867, 3868, 3869, 3870, 3871]"
PTB-EDOT,ITIC-Th,-5.33,-3.63,-5.673333333333334,-3.908888888888889,0.667,MeTHF,16.0,_,100.0,8.59,8.59,0.84,66.5,"[<rdkit.Chem.rdchem.Mol object at 0x7f5838e2e0a0>, <rdkit.Chem.rdchem.Mol object at 0x7f5838e2f610>, <rdkit.Chem.rdchem.Mol object at 0x7f5838e2ccf0>, <rdkit.Chem.rdchem.Mol object at 0x7f5838e2f3e0>, <rdkit.Chem.rdchem.Mol object at 0x7f5838e2d770>, <rdkit.Chem.rdchem.Mol object at 0x7f5838e2e650>, <rdkit.Chem.rdchem.Mol object at 0x7f5838e2db60>]","[<rdkit.Chem.rdchem.Mol object at 0x7f5838e2fdf0>, <rdkit.Chem.rdchem.Mol object at 0x7f5838e2cc10>, <rdkit.Chem.rdchem.Mol object at 0x7f5838e2e6c0>, <rdkit.Chem.rdchem.Mol object at 0x7f5838e2eb20>, <rdkit.Chem.rdchem.Mol object at 0x7f5838e34510>]","[<rdkit.Chem.rdchem.Mol object at 0x7f5838e2e0a0>, <rdkit.Chem.rdchem.Mol object at 0x7f5838e2f610>, <rdkit.Chem.rdchem.Mol object at 0x7f5838e2ccf0>, <rdkit.Chem.rdchem.Mol object at 0x7f5838e2f3e0>, <rdkit.Chem.rdchem.Mol object at 0x7f5838e2d770>, <rdkit.Chem.rdchem.Mol object at 0x7f5838e2e650>, <rdkit.Chem.rdchem.Mol object at 0x7f5838e2db60>, '.', <rdkit.Chem.rdchem.Mol object at 0x7f5838e2fdf0>, <rdkit.Chem.rdchem.Mol object at 0x7f5838e2cc10>, <rdkit.Chem.rdchem.Mol object at 0x7f5838e2e6c0>, <rdkit.Chem.rdchem.Mol object at 0x7f5838e2eb20>, <rdkit.Chem.rdchem.Mol object at 0x7f5838e34510>]","[0, 0, 0, 0, 3872, 3873, 3874, 3875, 3876, 3877, 3878, 1, 3879, 3880, 3881, 3882, 3883]"
PTB-EDOTS,ITIC-Th,-5.38,-3.69,-5.673333333333334,-3.908888888888889,0.667,MeTHF,16.0,_,100.0,10.18,10.18,0.88,71.2,"[<rdkit.Chem.rdchem.Mol object at 0x7f5838e2da10>, <rdkit.Chem.rdchem.Mol object at 0x7f5838e2fed0>, <rdkit.Chem.rdchem.Mol object at 0x7f5838e2e7a0>, <rdkit.Chem.rdchem.Mol object at 0x7f5838e2eea0>, <rdkit.Chem.rdchem.Mol object at 0x7f5838e2ece0>, <rdkit.Chem.rdchem.Mol object at 0x7f5838e2ff40>, <rdkit.Chem.rdchem.Mol object at 0x7f5838e34120>]","[<rdkit.Chem.rdchem.Mol object at 0x7f5838e2eab0>, <rdkit.Chem.rdchem.Mol object at 0x7f5838e34270>, <rdkit.Chem.rdchem.Mol object at 0x7f5838e2d9a0>, <rdkit.Chem.rdchem.Mol object at 0x7f5838e2e960>, <rdkit.Chem.rdchem.Mol object at 0x7f5838e34820>]","[<rdkit.Chem.rdchem.Mol object at 0x7f5838e2da10>, <rdkit.Chem.rdchem.Mol object at 0x7f5838e2fed0>, <rdkit.Chem.rdchem.Mol object at 0x7f5838e2e7a0>, <rdkit.Chem.rdchem.Mol object at 0x7f5838e2eea0>, <rdkit.Chem.rdchem.Mol object at 0x7f5838e2ece0>, <rdkit.Chem.rdchem.Mol object at 0x7f5838e2ff40>, <rdkit.Chem.rdchem.Mol object at 0x7f5838e34120>, '.', <rdkit.Chem.rdchem.Mol object at 0x7f5838e2eab0>, <rdkit.Chem.rdchem.Mol object at 0x7f5838e34270>, <rdkit.Chem.rdchem.Mol object at 0x7f5838e2d9a0>, <rdkit.Chem.rdchem.Mol object at 0x7f5838e2e960>, <rdkit.Chem.rdchem.Mol object at 0x7f5838e34820>]","[0, 0, 0, 0, 3884, 3885, 3886, 3887, 3888, 3889, 3890, 1, 3891, 3892, 3893, 3894, 3895]"
POPB,IT-4F,-5.38,-3.57,-5.66875,-4.060416666666667,0.667,CB,20.0,DIO,25.0,6.2,6.19,0.72,51.2,"[<rdkit.Chem.rdchem.Mol object at 0x7f5838e2e500>, <rdkit.Chem.rdchem.Mol object at 0x7f5838e2c350>, <rdkit.Chem.rdchem.Mol object at 0x7f5838e2f4c0>, <rdkit.Chem.rdchem.Mol object at 0x7f5838e342e0>, <rdkit.Chem.rdchem.Mol object at 0x7f5838e34190>, <rdkit.Chem.rdchem.Mol object at 0x7f5838e340b0>, <rdkit.Chem.rdchem.Mol object at 0x7f5838e34c10>, <rdkit.Chem.rdchem.Mol object at 0x7f5838e34eb0>]","[<rdkit.Chem.rdchem.Mol object at 0x7f5838e2f6f0>, <rdkit.Chem.rdchem.Mol object at 0x7f5838e34a50>, <rdkit.Chem.rdchem.Mol object at 0x7f5838e2de70>, <rdkit.Chem.rdchem.Mol object at 0x7f5838e349e0>, <rdkit.Chem.rdchem.Mol object at 0x7f5838e34970>]","[<rdkit.Chem.rdchem.Mol object at 0x7f5838e2e500>, <rdkit.Chem.rdchem.Mol object at 0x7f5838e2c350>, <rdkit.Chem.rdchem.Mol object at 0x7f5838e2f4c0>, <rdkit.Chem.rdchem.Mol object at 0x7f5838e342e0>, <rdkit.Chem.rdchem.Mol object at 0x7f5838e34190>, <rdkit.Chem.rdchem.Mol object at 0x7f5838e340b0>, <rdkit.Chem.rdchem.Mol object at 0x7f5838e34c10>, <rdkit.Chem.rdchem.Mol object at 0x7f5838e34eb0>, '.', <rdkit.Chem.rdchem.Mol object at 0x7f5838e2f6f0>, <rdkit.Chem.rdchem.Mol object at 0x7f5838e34a50>, <rdkit.Chem.rdchem.Mol object at 0x7f5838e2de70>, <rdkit.Chem.rdchem.Mol object at 0x7f5838e349e0>, <rdkit.Chem.rdchem.Mol object at 0x7f5838e34970>]","[0, 0, 0, 3896, 3897, 3898, 3899, 3900, 3901, 3902, 3903, 1, 3904, 3905, 3906, 3907, 3908]"