Donor,Acceptor,HOMO_D_eV,LUMO_D_eV,HOMO_A_eV,LUMO_A_eV,D_A_ratio_m_m,solvent,total_solids_conc_mg_mL,solvent_additive,annealing_temperature,PCE_percent,calc_PCE_percent,Voc_V,FF_percent,Donor_BRICS,Acceptor_BRICS,DA_pair_BRICS,DA_tokenized_BRICS
P3HT,BIBT-NI,-5.057777777777777,-2.989444444444445,-5.62,-3.65,0.833,o-DCB,28.0,_,110.0,2.1,2.09,0.77,44.2,"[<rdkit.Chem.rdchem.Mol object at 0x7f5838e2e180>, <rdkit.Chem.rdchem.Mol object at 0x7f5838e2eb90>, <rdkit.Chem.rdchem.Mol object at 0x7f5838e359a0>, <rdkit.Chem.rdchem.Mol object at 0x7f5838e352a0>]","[<rdkit.Chem.rdchem.Mol object at 0x7f5838e2ee30>, <rdkit.Chem.rdchem.Mol object at 0x7f5838e34e40>, <rdkit.Chem.rdchem.Mol object at 0x7f5838e34740>, <rdkit.Chem.rdchem.Mol object at 0x7f5838e343c0>]","[<rdkit.Chem.rdchem.Mol object at 0x7f5838e2e180>, <rdkit.Chem.rdchem.Mol object at 0x7f5838e2eb90>, <rdkit.Chem.rdchem.Mol object at 0x7f5838e359a0>, <rdkit.Chem.rdchem.Mol object at 0x7f5838e352a0>, '.', <rdkit.Chem.rdchem.Mol object at 0x7f5838e2ee30>, <rdkit.Chem.rdchem.Mol object at 0x7f5838e34e40>, <rdkit.Chem.rdchem.Mol object at 0x7f5838e34740>, <rdkit.Chem.rdchem.Mol object at 0x7f5838e343c0>]","[0, 0, 0, 0, 0, 0, 0, 0, 3922, 3923, 3924, 3925, 1, 3926, 3927, 3928, 3929]"
PBDS-T,ITIC,-5.349999999999999,-3.67,-5.574146341463415,-3.915,1.2,CB,20.0,DIO,25.0,10.72,10.72,0.98,60.0,"[<rdkit.Chem.rdchem.Mol object at 0x7f5838e35f50>, <rdkit.Chem.rdchem.Mol object at 0x7f5838e35d20>, <rdkit.Chem.rdchem.Mol object at 0x7f5838e37300>, <rdkit.Chem.rdchem.Mol object at 0x7f5838e378b0>, <rdkit.Chem.rdchem.Mol object at 0x7f5838e37290>, <rdkit.Chem.rdchem.Mol object at 0x7f5838e36ea0>]","[<rdkit.Chem.rdchem.Mol object at 0x7f5838e34ba0>, <rdkit.Chem.rdchem.Mol object at 0x7f5838e362d0>, <rdkit.Chem.rdchem.Mol object at 0x7f5838e35a10>, <rdkit.Chem.rdchem.Mol object at 0x7f5838e37370>, <rdkit.Chem.rdchem.Mol object at 0x7f5838e35cb0>]","[<rdkit.Chem.rdchem.Mol object at 0x7f5838e35f50>, <rdkit.Chem.rdchem.Mol object at 0x7f5838e35d20>, <rdkit.Chem.rdchem.Mol object at 0x7f5838e37300>, <rdkit.Chem.rdchem.Mol object at 0x7f5838e378b0>, <rdkit.Chem.rdchem.Mol object at 0x7f5838e37290>, <rdkit.Chem.rdchem.Mol object at 0x7f5838e36ea0>, '.', <rdkit.Chem.rdchem.Mol object at 0x7f5838e34ba0>, <rdkit.Chem.rdchem.Mol object at 0x7f5838e362d0>, <rdkit.Chem.rdchem.Mol object at 0x7f5838e35a10>, <rdkit.Chem.rdchem.Mol object at 0x7f5838e37370>, <rdkit.Chem.rdchem.Mol object at 0x7f5838e35cb0>]","[0, 0, 0, 0, 0, 3978, 3979, 3980, 3981, 3982, 3983, 1, 3984, 3985, 3986, 3987, 3988]"
PBDS-T,ITIC-F,-5.349999999999999,-3.67,-5.619999999999999,-4.02,1.0,CB,20.0,DIO,25.0,11.19,11.19,0.9,66.7,"[<rdkit.Chem.rdchem.Mol object at 0x7f5838e374c0>, <rdkit.Chem.rdchem.Mol object at 0x7f5838e37840>, <rdkit.Chem.rdchem.Mol object at 0x7f5838e36260>, <rdkit.Chem.rdchem.Mol object at 0x7f5838e37060>, <rdkit.Chem.rdchem.Mol object at 0x7f5838e35460>, <rdkit.Chem.rdchem.Mol object at 0x7f5838e361f0>]","[<rdkit.Chem.rdchem.Mol object at 0x7f5838e34040>, <rdkit.Chem.rdchem.Mol object at 0x7f5838e36490>, <rdkit.Chem.rdchem.Mol object at 0x7f5838e36180>, <rdkit.Chem.rdchem.Mol object at 0x7f5838e37220>, <rdkit.Chem.rdchem.Mol object at 0x7f5838e37920>]","[<rdkit.Chem.rdchem.Mol object at 0x7f5838e374c0>, <rdkit.Chem.rdchem.Mol object at 0x7f5838e37840>, <rdkit.Chem.rdchem.Mol object at 0x7f5838e36260>, <rdkit.Chem.rdchem.Mol object at 0x7f5838e37060>, <rdkit.Chem.rdchem.Mol object at 0x7f5838e35460>, <rdkit.Chem.rdchem.Mol object at 0x7f5838e361f0>, '.', <rdkit.Chem.rdchem.Mol object at 0x7f5838e34040>, <rdkit.Chem.rdchem.Mol object at 0x7f5838e36490>, <rdkit.Chem.rdchem.Mol object at 0x7f5838e36180>, <rdkit.Chem.rdchem.Mol object at 0x7f5838e37220>, <rdkit.Chem.rdchem.Mol object at 0x7f5838e37920>]","[0, 0, 0, 0, 0, 3989, 3990, 3991, 3992, 3993, 3994, 1, 3995, 3996, 3997, 3998, 3999]"
PBDS-T,ITIC-Th1,-5.349999999999999,-3.67,-5.720000000000001,-4.065,1.0,CB,20.0,DIO,25.0,12.04,12.04,0.88,70.0,"[<rdkit.Chem.rdchem.Mol object at 0x7f5838e37a70>, <rdkit.Chem.rdchem.Mol object at 0x7f5838e37b50>, <rdkit.Chem.rdchem.Mol object at 0x7f5838e37990>, <rdkit.Chem.rdchem.Mol object at 0x7f5838e37760>, <rdkit.Chem.rdchem.Mol object at 0x7f5838e367a0>, <rdkit.Chem.rdchem.Mol object at 0x7f5838e377d0>]","[<rdkit.Chem.rdchem.Mol object at 0x7f5838e36340>, <rdkit.Chem.rdchem.Mol object at 0x7f5838e36f80>, <rdkit.Chem.rdchem.Mol object at 0x7f5838e37bc0>, <rdkit.Chem.rdchem.Mol object at 0x7f5838e36570>, <rdkit.Chem.rdchem.Mol object at 0x7f5838e37ed0>]","[<rdkit.Chem.rdchem.Mol object at 0x7f5838e37a70>, <rdkit.Chem.rdchem.Mol object at 0x7f5838e37b50>, <rdkit.Chem.rdchem.Mol object at 0x7f5838e37990>, <rdkit.Chem.rdchem.Mol object at 0x7f5838e37760>, <rdkit.Chem.rdchem.Mol object at 0x7f5838e367a0>, <rdkit.Chem.rdchem.Mol object at 0x7f5838e377d0>, '.', <rdkit.Chem.rdchem.Mol object at 0x7f5838e36340>, <rdkit.Chem.rdchem.Mol object at 0x7f5838e36f80>, <rdkit.Chem.rdchem.Mol object at 0x7f5838e37bc0>, <rdkit.Chem.rdchem.Mol object at 0x7f5838e36570>, <rdkit.Chem.rdchem.Mol object at 0x7f5838e37ed0>]","[0, 0, 0, 0, 0, 4000, 4001, 4002, 4003, 4004, 4005, 1, 4006, 4007, 4008, 4009, 4010]"
J71,ITDM,-5.353333333333333,-3.4318181818181825,-5.58,-3.82,1.0,CF,16.0,_,100.0,12.05,12.05,1.015,70.9,"[<rdkit.Chem.rdchem.Mol object at 0x7f5838e37d80>, <rdkit.Chem.rdchem.Mol object at 0x7f5838e366c0>, <rdkit.Chem.rdchem.Mol object at 0x7f5838e37ae0>, <rdkit.Chem.rdchem.Mol object at 0x7f5838e37d10>, <rdkit.Chem.rdchem.Mol object at 0x7f5838e363b0>, <rdkit.Chem.rdchem.Mol object at 0x7f5838e4c350>]","[<rdkit.Chem.rdchem.Mol object at 0x7f5838e36650>, <rdkit.Chem.rdchem.Mol object at 0x7f5838e37e60>, <rdkit.Chem.rdchem.Mol object at 0x7f5838e37c30>, <rdkit.Chem.rdchem.Mol object at 0x7f5838e37f40>, <rdkit.Chem.rdchem.Mol object at 0x7f5838e4c200>]","[<rdkit.Chem.rdchem.Mol object at 0x7f5838e37d80>, <rdkit.Chem.rdchem.Mol object at 0x7f5838e366c0>, <rdkit.Chem.rdchem.Mol object at 0x7f5838e37ae0>, <rdkit.Chem.rdchem.Mol object at 0x7f5838e37d10>, <rdkit.Chem.rdchem.Mol object at 0x7f5838e363b0>, <rdkit.Chem.rdchem.Mol object at 0x7f5838e4c350>, '.', <rdkit.Chem.rdchem.Mol object at 0x7f5838e36650>, <rdkit.Chem.rdchem.Mol object at 0x7f5838e37e60>, <rdkit.Chem.rdchem.Mol object at 0x7f5838e37c30>, <rdkit.Chem.rdchem.Mol object at 0x7f5838e37f40>, <rdkit.Chem.rdchem.Mol object at 0x7f5838e4c200>]","[0, 0, 0, 0, 0, 4011, 4012, 4013, 4014, 4015, 4016, 1, 4017, 4018, 4019, 4020, 4021]"
J71,IT-4F,-5.353333333333333,-3.4318181818181825,-5.66875,-4.060416666666667,1.0,CF,16.0,_,100.0,11.66,11.67,0.803,74.2,"[<rdkit.Chem.rdchem.Mol object at 0x7f5838e34580>, <rdkit.Chem.rdchem.Mol object at 0x7f5838e36ab0>, <rdkit.Chem.rdchem.Mol object at 0x7f5838e4cac0>, <rdkit.Chem.rdchem.Mol object at 0x7f5838e35770>, <rdkit.Chem.rdchem.Mol object at 0x7f5838e4c740>, <rdkit.Chem.rdchem.Mol object at 0x7f5838e4ccf0>]","[<rdkit.Chem.rdchem.Mol object at 0x7f5838e37530>, <rdkit.Chem.rdchem.Mol object at 0x7f5838e4c190>, <rdkit.Chem.rdchem.Mol object at 0x7f5838e35ee0>, <rdkit.Chem.rdchem.Mol object at 0x7f5838e4c900>, <rdkit.Chem.rdchem.Mol object at 0x7f5838e4cd60>]","[<rdkit.Chem.rdchem.Mol object at 0x7f5838e34580>, <rdkit.Chem.rdchem.Mol object at 0x7f5838e36ab0>, <rdkit.Chem.rdchem.Mol object at 0x7f5838e4cac0>, <rdkit.Chem.rdchem.Mol object at 0x7f5838e35770>, <rdkit.Chem.rdchem.Mol object at 0x7f5838e4c740>, <rdkit.Chem.rdchem.Mol object at 0x7f5838e4ccf0>, '.', <rdkit.Chem.rdchem.Mol object at 0x7f5838e37530>, <rdkit.Chem.rdchem.Mol object at 0x7f5838e4c190>, <rdkit.Chem.rdchem.Mol object at 0x7f5838e35ee0>, <rdkit.Chem.rdchem.Mol object at 0x7f5838e4c900>, <rdkit.Chem.rdchem.Mol object at 0x7f5838e4cd60>]","[0, 0, 0, 0, 0, 4033, 4034, 4035, 4036, 4037, 4038, 1, 4039, 4040, 4041, 4042, 4043]"
2TC-TT-BDTFT,m-ITIC,-5.45,-3.5,-5.526666666666667,-3.8515384615384622,1.0,o-DCB,16.0,_,120.0,9.65,9.59,1.06,59.31,"[<rdkit.Chem.rdchem.Mol object at 0x7f5838e4d1c0>, <rdkit.Chem.rdchem.Mol object at 0x7f5838e4e030>, <rdkit.Chem.rdchem.Mol object at 0x7f5838e4c5f0>, <rdkit.Chem.rdchem.Mol object at 0x7f5838e4dcb0>, <rdkit.Chem.rdchem.Mol object at 0x7f5838e4e340>, <rdkit.Chem.rdchem.Mol object at 0x7f5838e4cc80>, <rdkit.Chem.rdchem.Mol object at 0x7f5838e4dfc0>, <rdkit.Chem.rdchem.Mol object at 0x7f5838e4cb30>, <rdkit.Chem.rdchem.Mol object at 0x7f5838e4e650>]","[<rdkit.Chem.rdchem.Mol object at 0x7f5838e4e7a0>, <rdkit.Chem.rdchem.Mol object at 0x7f5838e4c890>, <rdkit.Chem.rdchem.Mol object at 0x7f5838e4ce40>, <rdkit.Chem.rdchem.Mol object at 0x7f5838e4c7b0>, <rdkit.Chem.rdchem.Mol object at 0x7f5838e4e3b0>]","[<rdkit.Chem.rdchem.Mol object at 0x7f5838e4d1c0>, <rdkit.Chem.rdchem.Mol object at 0x7f5838e4e030>, <rdkit.Chem.rdchem.Mol object at 0x7f5838e4c5f0>, <rdkit.Chem.rdchem.Mol object at 0x7f5838e4dcb0>, <rdkit.Chem.rdchem.Mol object at 0x7f5838e4e340>, <rdkit.Chem.rdchem.Mol object at 0x7f5838e4cc80>, <rdkit.Chem.rdchem.Mol object at 0x7f5838e4dfc0>, <rdkit.Chem.rdchem.Mol object at 0x7f5838e4cb30>, <rdkit.Chem.rdchem.Mol object at 0x7f5838e4e650>, '.', <rdkit.Chem.rdchem.Mol object at 0x7f5838e4e7a0>, <rdkit.Chem.rdchem.Mol object at 0x7f5838e4c890>, <rdkit.Chem.rdchem.Mol object at 0x7f5838e4ce40>, <rdkit.Chem.rdchem.Mol object at 0x7f5838e4c7b0>, <rdkit.Chem.rdchem.Mol object at 0x7f5838e4e3b0>]","[0, 0, 4078, 4079, 4080, 4081, 4082, 4083, 4084, 4085, 4086, 1, 4087, 4088, 4089, 4090, 4091]"
2T-TTC-BDTFT,m-ITIC,-5.41,-3.53,-5.526666666666667,-3.8515384615384622,1.0,o-DCB,16.0,_,120.0,11.15,11.15,0.97,69.37,"[<rdkit.Chem.rdchem.Mol object at 0x7f5838e4e490>, <rdkit.Chem.rdchem.Mol object at 0x7f5838e4d770>, <rdkit.Chem.rdchem.Mol object at 0x7f5838e4d700>, <rdkit.Chem.rdchem.Mol object at 0x7f5838e4da10>, <rdkit.Chem.rdchem.Mol object at 0x7f5838e4e6c0>, <rdkit.Chem.rdchem.Mol object at 0x7f5838e4daf0>, <rdkit.Chem.rdchem.Mol object at 0x7f5838e4e8f0>, <rdkit.Chem.rdchem.Mol object at 0x7f5838e4eab0>, <rdkit.Chem.rdchem.Mol object at 0x7f5838e4ece0>]","[<rdkit.Chem.rdchem.Mol object at 0x7f5838e4eea0>, <rdkit.Chem.rdchem.Mol object at 0x7f5838e4e260>, <rdkit.Chem.rdchem.Mol object at 0x7f5838e4ca50>, <rdkit.Chem.rdchem.Mol object at 0x7f5838e4e9d0>, <rdkit.Chem.rdchem.Mol object at 0x7f5838e4c580>]","[<rdkit.Chem.rdchem.Mol object at 0x7f5838e4e490>, <rdkit.Chem.rdchem.Mol object at 0x7f5838e4d770>, <rdkit.Chem.rdchem.Mol object at 0x7f5838e4d700>, <rdkit.Chem.rdchem.Mol object at 0x7f5838e4da10>, <rdkit.Chem.rdchem.Mol object at 0x7f5838e4e6c0>, <rdkit.Chem.rdchem.Mol object at 0x7f5838e4daf0>, <rdkit.Chem.rdchem.Mol object at 0x7f5838e4e8f0>, <rdkit.Chem.rdchem.Mol object at 0x7f5838e4eab0>, <rdkit.Chem.rdchem.Mol object at 0x7f5838e4ece0>, '.', <rdkit.Chem.rdchem.Mol object at 0x7f5838e4eea0>, <rdkit.Chem.rdchem.Mol object at 0x7f5838e4e260>, <rdkit.Chem.rdchem.Mol object at 0x7f5838e4ca50>, <rdkit.Chem.rdchem.Mol object at 0x7f5838e4e9d0>, <rdkit.Chem.rdchem.Mol object at 0x7f5838e4c580>]","[0, 0, 4092, 4093, 4094, 4095, 4096, 4097, 4098, 4099, 4100, 1, 4101, 4102, 4103, 4104, 4105]"
PBDB-T,IDNO-IDT,-5.297714285714285,-3.4170000000000003,-5.45,-3.65,1.0,CB,20.0,_,140.0,1.1,0.94,1.03,34.47,"[<rdkit.Chem.rdchem.Mol object at 0x7f5838e4fca0>, <rdkit.Chem.rdchem.Mol object at 0x7f5838e4d150>, <rdkit.Chem.rdchem.Mol object at 0x7f5838e4f840>, <rdkit.Chem.rdchem.Mol object at 0x7f5838e4fe60>, <rdkit.Chem.rdchem.Mol object at 0x7f5838c5c820>]","[<rdkit.Chem.rdchem.Mol object at 0x7f5838e4fa00>, <rdkit.Chem.rdchem.Mol object at 0x7f5838e4e2d0>, <rdkit.Chem.rdchem.Mol object at 0x7f5838e4fbc0>]","[<rdkit.Chem.rdchem.Mol object at 0x7f5838e4fca0>, <rdkit.Chem.rdchem.Mol object at 0x7f5838e4d150>, <rdkit.Chem.rdchem.Mol object at 0x7f5838e4f840>, <rdkit.Chem.rdchem.Mol object at 0x7f5838e4fe60>, <rdkit.Chem.rdchem.Mol object at 0x7f5838c5c820>, '.', <rdkit.Chem.rdchem.Mol object at 0x7f5838e4fa00>, <rdkit.Chem.rdchem.Mol object at 0x7f5838e4e2d0>, <rdkit.Chem.rdchem.Mol object at 0x7f5838e4fbc0>]","[0, 0, 0, 0, 0, 0, 0, 0, 4149, 4150, 4151, 4152, 4153, 1, 4154, 4155, 4156]"
PBDB-T,IM1-IDT,-5.297714285714285,-3.4170000000000003,-5.46,-4.02,0.667,CB,20.0,_,140.0,1.62,1.32,0.55,47.41,"[<rdkit.Chem.rdchem.Mol object at 0x7f5838e4f7d0>, <rdkit.Chem.rdchem.Mol object at 0x7f5838e4f8b0>, <rdkit.Chem.rdchem.Mol object at 0x7f5838e4fed0>, <rdkit.Chem.rdchem.Mol object at 0x7f5838c5cba0>, <rdkit.Chem.rdchem.Mol object at 0x7f5838c5c6d0>]","[<rdkit.Chem.rdchem.Mol object at 0x7f5838e4ff40>, <rdkit.Chem.rdchem.Mol object at 0x7f5838e4fdf0>, <rdkit.Chem.rdchem.Mol object at 0x7f5838e4f680>, <rdkit.Chem.rdchem.Mol object at 0x7f5838e4f610>]","[<rdkit.Chem.rdchem.Mol object at 0x7f5838e4f7d0>, <rdkit.Chem.rdchem.Mol object at 0x7f5838e4f8b0>, <rdkit.Chem.rdchem.Mol object at 0x7f5838e4fed0>, <rdkit.Chem.rdchem.Mol object at 0x7f5838c5cba0>, <rdkit.Chem.rdchem.Mol object at 0x7f5838c5c6d0>, '.', <rdkit.Chem.rdchem.Mol object at 0x7f5838e4ff40>, <rdkit.Chem.rdchem.Mol object at 0x7f5838e4fdf0>, <rdkit.Chem.rdchem.Mol object at 0x7f5838e4f680>, <rdkit.Chem.rdchem.Mol object at 0x7f5838e4f610>]","[0, 0, 0, 0, 0, 0, 0, 4157, 4158, 4159, 4160, 4161, 1, 4162, 4163, 4164, 4165]"
PBDB-T,ITAN-IDT,-5.297714285714285,-3.4170000000000003,-5.42,-3.69,1.5,CB,20.0,_,140.0,2.0,1.72,1.18,39.19,"[<rdkit.Chem.rdchem.Mol object at 0x7f5838e4f990>, <rdkit.Chem.rdchem.Mol object at 0x7f5838c5cc10>, <rdkit.Chem.rdchem.Mol object at 0x7f5838c5c660>, <rdkit.Chem.rdchem.Mol object at 0x7f5838c5c190>, <rdkit.Chem.rdchem.Mol object at 0x7f5838c5c270>]","[<rdkit.Chem.rdchem.Mol object at 0x7f5838e4f450>, <rdkit.Chem.rdchem.Mol object at 0x7f5838e4d4d0>, <rdkit.Chem.rdchem.Mol object at 0x7f5838e4e5e0>, <rdkit.Chem.rdchem.Mol object at 0x7f5838e4fd80>, <rdkit.Chem.rdchem.Mol object at 0x7f5838e4fc30>]","[<rdkit.Chem.rdchem.Mol object at 0x7f5838e4f990>, <rdkit.Chem.rdchem.Mol object at 0x7f5838c5cc10>, <rdkit.Chem.rdchem.Mol object at 0x7f5838c5c660>, <rdkit.Chem.rdchem.Mol object at 0x7f5838c5c190>, <rdkit.Chem.rdchem.Mol object at 0x7f5838c5c270>, '.', <rdkit.Chem.rdchem.Mol object at 0x7f5838e4f450>, <rdkit.Chem.rdchem.Mol object at 0x7f5838e4d4d0>, <rdkit.Chem.rdchem.Mol object at 0x7f5838e4e5e0>, <rdkit.Chem.rdchem.Mol object at 0x7f5838e4fd80>, <rdkit.Chem.rdchem.Mol object at 0x7f5838e4fc30>]","[0, 0, 0, 0, 0, 0, 4166, 4167, 4168, 4169, 4170, 1, 4171, 4172, 4173, 4174, 4175]"
PBDT-3TCO,IT-4F,-5.5,-3.24,-5.66875,-4.060416666666667,1.0,CB,10.0,DIO,25.0,11.52,11.56,0.88,62.7,"[<rdkit.Chem.rdchem.Mol object at 0x7f5838e4f290>, <rdkit.Chem.rdchem.Mol object at 0x7f5838e4e960>, <rdkit.Chem.rdchem.Mol object at 0x7f5838c5cd60>, <rdkit.Chem.rdchem.Mol object at 0x7f5838e4fae0>, <rdkit.Chem.rdchem.Mol object at 0x7f5838c5d0e0>, <rdkit.Chem.rdchem.Mol object at 0x7f5838c5cb30>, <rdkit.Chem.rdchem.Mol object at 0x7f5838c5c9e0>]","[<rdkit.Chem.rdchem.Mol object at 0x7f5838e4f5a0>, <rdkit.Chem.rdchem.Mol object at 0x7f5838c5c3c0>, <rdkit.Chem.rdchem.Mol object at 0x7f5838e4fb50>, <rdkit.Chem.rdchem.Mol object at 0x7f5838c5d540>, <rdkit.Chem.rdchem.Mol object at 0x7f5838c5c430>]","[<rdkit.Chem.rdchem.Mol object at 0x7f5838e4f290>, <rdkit.Chem.rdchem.Mol object at 0x7f5838e4e960>, <rdkit.Chem.rdchem.Mol object at 0x7f5838c5cd60>, <rdkit.Chem.rdchem.Mol object at 0x7f5838e4fae0>, <rdkit.Chem.rdchem.Mol object at 0x7f5838c5d0e0>, <rdkit.Chem.rdchem.Mol object at 0x7f5838c5cb30>, <rdkit.Chem.rdchem.Mol object at 0x7f5838c5c9e0>, '.', <rdkit.Chem.rdchem.Mol object at 0x7f5838e4f5a0>, <rdkit.Chem.rdchem.Mol object at 0x7f5838c5c3c0>, <rdkit.Chem.rdchem.Mol object at 0x7f5838e4fb50>, <rdkit.Chem.rdchem.Mol object at 0x7f5838c5d540>, <rdkit.Chem.rdchem.Mol object at 0x7f5838c5c430>]","[0, 0, 0, 0, 4176, 4177, 4178, 4179, 4180, 4181, 4182, 1, 4183, 4184, 4185, 4186, 4187]"
PBDT-3T,IT-4F,-5.48,-3.21,-5.66875,-4.060416666666667,0.667,CB,10.0,DIO,25.0,1.0,1.01,0.85,30.43,"[<rdkit.Chem.rdchem.Mol object at 0x7f5838e4ee30>, <rdkit.Chem.rdchem.Mol object at 0x7f5838e4ea40>, <rdkit.Chem.rdchem.Mol object at 0x7f5838c5d460>, <rdkit.Chem.rdchem.Mol object at 0x7f5838c5d230>, <rdkit.Chem.rdchem.Mol object at 0x7f5838c5cf90>, <rdkit.Chem.rdchem.Mol object at 0x7f5838c5d770>]","[<rdkit.Chem.rdchem.Mol object at 0x7f5838c5da10>, <rdkit.Chem.rdchem.Mol object at 0x7f5838c5d310>, <rdkit.Chem.rdchem.Mol object at 0x7f5838c5d380>, <rdkit.Chem.rdchem.Mol object at 0x7f5838c5c5f0>, <rdkit.Chem.rdchem.Mol object at 0x7f5838c5ce40>]","[<rdkit.Chem.rdchem.Mol object at 0x7f5838e4ee30>, <rdkit.Chem.rdchem.Mol object at 0x7f5838e4ea40>, <rdkit.Chem.rdchem.Mol object at 0x7f5838c5d460>, <rdkit.Chem.rdchem.Mol object at 0x7f5838c5d230>, <rdkit.Chem.rdchem.Mol object at 0x7f5838c5cf90>, <rdkit.Chem.rdchem.Mol object at 0x7f5838c5d770>, '.', <rdkit.Chem.rdchem.Mol object at 0x7f5838c5da10>, <rdkit.Chem.rdchem.Mol object at 0x7f5838c5d310>, <rdkit.Chem.rdchem.Mol object at 0x7f5838c5d380>, <rdkit.Chem.rdchem.Mol object at 0x7f5838c5c5f0>, <rdkit.Chem.rdchem.Mol object at 0x7f5838c5ce40>]","[0, 0, 0, 0, 0, 4188, 4189, 4190, 4191, 4192, 4193, 1, 4194, 4195, 4196, 4197, 4198]"
PTB7-Th,NFDTS,-5.204782608695651,-3.5391891891891896,-5.36,-3.92,0.833,CF,20.0,_,25.0,6.15,6.15,0.67,48.9,"[<rdkit.Chem.rdchem.Mol object at 0x7f5838e4e180>, <rdkit.Chem.rdchem.Mol object at 0x7f5838c5d2a0>, <rdkit.Chem.rdchem.Mol object at 0x7f5838c5d1c0>, <rdkit.Chem.rdchem.Mol object at 0x7f5838c5d000>, <rdkit.Chem.rdchem.Mol object at 0x7f5838c5c4a0>, <rdkit.Chem.rdchem.Mol object at 0x7f5838c5c900>, <rdkit.Chem.rdchem.Mol object at 0x7f5838c5db60>]","[<rdkit.Chem.rdchem.Mol object at 0x7f5838c5daf0>, <rdkit.Chem.rdchem.Mol object at 0x7f5838c5cc80>, <rdkit.Chem.rdchem.Mol object at 0x7f5838c5c890>, <rdkit.Chem.rdchem.Mol object at 0x7f5838c5d4d0>]","[<rdkit.Chem.rdchem.Mol object at 0x7f5838e4e180>, <rdkit.Chem.rdchem.Mol object at 0x7f5838c5d2a0>, <rdkit.Chem.rdchem.Mol object at 0x7f5838c5d1c0>, <rdkit.Chem.rdchem.Mol object at 0x7f5838c5d000>, <rdkit.Chem.rdchem.Mol object at 0x7f5838c5c4a0>, <rdkit.Chem.rdchem.Mol object at 0x7f5838c5c900>, <rdkit.Chem.rdchem.Mol object at 0x7f5838c5db60>, '.', <rdkit.Chem.rdchem.Mol object at 0x7f5838c5daf0>, <rdkit.Chem.rdchem.Mol object at 0x7f5838c5cc80>, <rdkit.Chem.rdchem.Mol object at 0x7f5838c5c890>, <rdkit.Chem.rdchem.Mol object at 0x7f5838c5d4d0>]","[0, 0, 0, 0, 0, 4199, 4200, 4201, 4202, 4203, 4204, 4205, 1, 4206, 4207, 4208, 4209]"
PTB7-Th,NFDTSB,-5.204782608695651,-3.5391891891891896,-5.56,-3.85,1.0,CF,20.0,_,25.0,9.6,9.61,0.75,63.6,"[<rdkit.Chem.rdchem.Mol object at 0x7f5838c5c580>, <rdkit.Chem.rdchem.Mol object at 0x7f5838c5c510>, <rdkit.Chem.rdchem.Mol object at 0x7f5838c5c350>, <rdkit.Chem.rdchem.Mol object at 0x7f5838c5d690>, <rdkit.Chem.rdchem.Mol object at 0x7f5838c5ccf0>, <rdkit.Chem.rdchem.Mol object at 0x7f5838c5c200>, <rdkit.Chem.rdchem.Mol object at 0x7f5838c5da80>]","[<rdkit.Chem.rdchem.Mol object at 0x7f5838c5ca50>, <rdkit.Chem.rdchem.Mol object at 0x7f5838c5d070>, <rdkit.Chem.rdchem.Mol object at 0x7f5838c5cdd0>, <rdkit.Chem.rdchem.Mol object at 0x7f5838c5ceb0>, <rdkit.Chem.rdchem.Mol object at 0x7f5838c5dbd0>, <rdkit.Chem.rdchem.Mol object at 0x7f5838c5d5b0>]","[<rdkit.Chem.rdchem.Mol object at 0x7f5838c5c580>, <rdkit.Chem.rdchem.Mol object at 0x7f5838c5c510>, <rdkit.Chem.rdchem.Mol object at 0x7f5838c5c350>, <rdkit.Chem.rdchem.Mol object at 0x7f5838c5d690>, <rdkit.Chem.rdchem.Mol object at 0x7f5838c5ccf0>, <rdkit.Chem.rdchem.Mol object at 0x7f5838c5c200>, <rdkit.Chem.rdchem.Mol object at 0x7f5838c5da80>, '.', <rdkit.Chem.rdchem.Mol object at 0x7f5838c5ca50>, <rdkit.Chem.rdchem.Mol object at 0x7f5838c5d070>, <rdkit.Chem.rdchem.Mol object at 0x7f5838c5cdd0>, <rdkit.Chem.rdchem.Mol object at 0x7f5838c5ceb0>, <rdkit.Chem.rdchem.Mol object at 0x7f5838c5dbd0>, <rdkit.Chem.rdchem.Mol object at 0x7f5838c5d5b0>]","[0, 0, 0, 4210, 4211, 4212, 4213, 4214, 4215, 4216, 1, 4217, 4218, 4219, 4220, 4221, 4222]"