Donor,Acceptor,HOMO_D_eV,LUMO_D_eV,HOMO_A_eV,LUMO_A_eV,D_A_ratio_m_m,solvent,total_solids_conc_mg_mL,solvent_additive,annealing_temperature,PCE_percent,calc_PCE_percent,Voc_V,FF_percent,Donor_BRICS,Acceptor_BRICS,DA_pair_BRICS,DA_tokenized_BRICS
PTB7-Th,F8IC,-5.204782608695651,-3.5391891891891896,-5.43,-4.0,0.588,CF,10.0,DPE,25.0,10.9,10.87,0.64,67.6,"['[3*]O[3*]', '[4*]CC(CC)CCCC', '[1*]C([6*])=O', '[8*]CC(CC)CCCC', '[14*]c1sc2c([14*])sc(C)c2c1F', '[14*]c1ccc([14*])s1', '[14*]c1cc2c([16*])c3sc(C)cc3c([16*])c2s1']","['[7*]C(C#N)C#N', '[7*]C1C(=O)c2cc(F)c(F)cc2C1[7*]', '[7*]C[8*]', '[8*]CCCCCC', '[14*]c1cc2sc3c(c2s1)C(c1ccc([16*])cc1)(c1ccc([16*])cc1)c1c-3sc2c3c(sc12)-c1sc2cc([14*])sc2c1C3(c1ccc([16*])cc1)c1ccc([16*])cc1']","['[3*]O[3*]', '[4*]CC(CC)CCCC', '[1*]C([6*])=O', '[8*]CC(CC)CCCC', '[14*]c1sc2c([14*])sc(C)c2c1F', '[14*]c1ccc([14*])s1', '[14*]c1cc2c([16*])c3sc(C)cc3c([16*])c2s1', '.', '[7*]C(C#N)C#N', '[7*]C1C(=O)c2cc(F)c(F)cc2C1[7*]', '[7*]C[8*]', '[8*]CCCCCC', '[14*]c1cc2sc3c(c2s1)C(c1ccc([16*])cc1)(c1ccc([16*])cc1)c1c-3sc2c3c(sc12)-c1sc2cc([14*])sc2c1C3(c1ccc([16*])cc1)c1ccc([16*])cc1']","[0, 0, 0, 0, 2, 3, 4, 5, 35, 7, 9, 1, 10, 42, 12, 13, 14]"
PTB7-Th,F10IC,-5.204782608695651,-3.5391891891891896,-5.26,-3.96,0.588,CF,10.0,DPE,25.0,10.2,10.16,0.73,66.8,"['[3*]O[3*]', '[4*]CC(CC)CCCC', '[1*]C([6*])=O', '[8*]CC(CC)CCCC', '[14*]c1sc2c([14*])sc(C)c2c1F', '[14*]c1ccc([14*])s1', '[14*]c1cc2c([16*])c3sc(C)cc3c([16*])c2s1']","['[7*]C(C#N)C#N', '[7*]C1C(=O)c2cc(F)c(F)cc2C1[7*]', '[7*]C[8*]', '[8*]CCCCCC', '[14*]c1cc2sc3c4c(sc3c2s1)-c1sc2c3c(sc2c1C4(c1ccc([16*])cc1)c1ccc([16*])cc1)-c1sc2c(sc4cc([14*])sc42)c1C3(c1ccc([16*])cc1)c1ccc([16*])cc1']","['[3*]O[3*]', '[4*]CC(CC)CCCC', '[1*]C([6*])=O', '[8*]CC(CC)CCCC', '[14*]c1sc2c([14*])sc(C)c2c1F', '[14*]c1ccc([14*])s1', '[14*]c1cc2c([16*])c3sc(C)cc3c([16*])c2s1', '.', '[7*]C(C#N)C#N', '[7*]C1C(=O)c2cc(F)c(F)cc2C1[7*]', '[7*]C[8*]', '[8*]CCCCCC', '[14*]c1cc2sc3c4c(sc3c2s1)-c1sc2c3c(sc2c1C4(c1ccc([16*])cc1)c1ccc([16*])cc1)-c1sc2c(sc4cc([14*])sc42)c1C3(c1ccc([16*])cc1)c1ccc([16*])cc1']","[0, 0, 0, 0, 2, 3, 4, 5, 35, 7, 9, 1, 10, 42, 12, 13, 139]"
PBDTTT-C-T,DC-IDT2T,-5.128,-3.268,-5.43,-3.85,1.2,o-DCB:CF (6.667:1),20.0,_,25.0,3.93,3.92,0.9,52.3,"['[6*]C(=O)CC(CC)CCCC', '[8*]CC(CC)CCCC', '[14*]c1cc2c(C)sc([14*])c2s1', '[14*]c1ccc([14*])s1', '[14*]c1cc2c([16*])c3sc(C)cc3c([16*])c2s1']","['[7*]C(C#N)C#N', '[7*]C1C(=O)c2ccccc2C1[7*]', '[7*]C[8*]', '[8*]CCCCCC', '[14*]c1ccc([14*])s1', '[14*]c1cc2c(s1)-c1cc3c(cc1C2(c1ccc([16*])cc1)c1ccc([16*])cc1)-c1sc([14*])cc1C3(c1ccc([16*])cc1)c1ccc([16*])cc1']","['[6*]C(=O)CC(CC)CCCC', '[8*]CC(CC)CCCC', '[14*]c1cc2c(C)sc([14*])c2s1', '[14*]c1ccc([14*])s1', '[14*]c1cc2c([16*])c3sc(C)cc3c([16*])c2s1', '.', '[7*]C(C#N)C#N', '[7*]C1C(=O)c2ccccc2C1[7*]', '[7*]C[8*]', '[8*]CCCCCC', '[14*]c1ccc([14*])s1', '[14*]c1cc2c(s1)-c1cc3c(cc1C2(c1ccc([16*])cc1)c1ccc([16*])cc1)-c1sc([14*])cc1C3(c1ccc([16*])cc1)c1ccc([16*])cc1']","[0, 0, 0, 0, 0, 98, 5, 96, 7, 9, 1, 10, 11, 12, 13, 7, 38]"
Pff4TBT-2DT,FBR,-5.34,-3.7,-5.786666666666666,-3.673333333333333,1.0,CB,20.0,_,25.0,7.8,7.86,1.12,61.0,"['[8*]CC(CCCCCCCCCC)CCCCCCCCCCCC', '[14*]c1ccc(C)s1', '[14*]c1cc([16*])c(C)s1', '[14*]c1ccc([14*])s1', '[14*]c1cc([16*])c([14*])s1', '[16*]c1c(F)c(F)c([16*])c2nsnc12']","['[8*]CC', '[7*]C1SC(=S)N([10*])C1=O', '[7*]C[8*]', '[16*]c1ccc([16*])c2nsnc12', '[16*]c1ccc2c(c1)C(CCCCCCCC)(CCCCCCCC)c1cc([16*])ccc1-2']","['[8*]CC(CCCCCCCCCC)CCCCCCCCCCCC', '[14*]c1ccc(C)s1', '[14*]c1cc([16*])c(C)s1', '[14*]c1ccc([14*])s1', '[14*]c1cc([16*])c([14*])s1', '[16*]c1c(F)c(F)c([16*])c2nsnc12', '.', '[8*]CC', '[7*]C1SC(=S)N([10*])C1=O', '[7*]C[8*]', '[16*]c1ccc([16*])c2nsnc12', '[16*]c1ccc2c(c1)C(CCCCCCCC)(CCCCCCCC)c1cc([16*])ccc1-2']","[0, 0, 0, 0, 0, 132, 6, 57, 7, 34, 59, 1, 22, 76, 12, 127, 78]"
Pff4TBT-2DT,FTTB,-5.34,-3.7,-5.65,-3.62,1.0,CB,20.0,_,25.0,5.0,4.87,1.05,45.0,"['[8*]CC(CCCCCCCCCC)CCCCCCCCCCCC', '[14*]c1ccc(C)s1', '[14*]c1cc([16*])c(C)s1', '[14*]c1ccc([14*])s1', '[14*]c1cc([16*])c([14*])s1', '[16*]c1c(F)c(F)c([16*])c2nsnc12']","['[8*]CC', '[7*]C[8*]', '[7*]C1C(=O)N([10*])C(=S)N([10*])C1=O', '[14*]c1ccc([14*])s1', '[16*]c1ccc2c(c1)C(CCCCCCCC)(CCCCCCCC)c1cc([16*])ccc1-2']","['[8*]CC(CCCCCCCCCC)CCCCCCCCCCCC', '[14*]c1ccc(C)s1', '[14*]c1cc([16*])c(C)s1', '[14*]c1ccc([14*])s1', '[14*]c1cc([16*])c([14*])s1', '[16*]c1c(F)c(F)c([16*])c2nsnc12', '.', '[8*]CC', '[7*]C[8*]', '[7*]C1C(=O)N([10*])C(=S)N([10*])C1=O', '[14*]c1ccc([14*])s1', '[16*]c1ccc2c(c1)C(CCCCCCCC)(CCCCCCCC)c1cc([16*])ccc1-2']","[0, 0, 0, 0, 0, 132, 6, 57, 7, 34, 59, 1, 22, 12, 140, 7, 78]"
Pff4TBT-2DT,IDFBR,-5.34,-3.7,-5.75,-3.7,1.0,CB,20.0,_,25.0,1.75,1.81,1.08,38.0,"['[8*]CC(CCCCCCCCCC)CCCCCCCCCCCC', '[14*]c1ccc(C)s1', '[14*]c1cc([16*])c(C)s1', '[14*]c1ccc([14*])s1', '[14*]c1cc([16*])c([14*])s1', '[16*]c1c(F)c(F)c([16*])c2nsnc12']","['[8*]CC', '[7*]C1SC(=S)N([10*])C1=O', '[7*]C[8*]', '[16*]c1ccc([16*])c2nsnc12', '[16*]c1ccc2c(c1)C(CC(CC)CCCC)(CC(CC)CCCC)c1cc3c(cc1-2)C(CC(CC)CCCC)(CC(CC)CCCC)c1cc([16*])ccc1-3']","['[8*]CC(CCCCCCCCCC)CCCCCCCCCCCC', '[14*]c1ccc(C)s1', '[14*]c1cc([16*])c(C)s1', '[14*]c1ccc([14*])s1', '[14*]c1cc([16*])c([14*])s1', '[16*]c1c(F)c(F)c([16*])c2nsnc12', '.', '[8*]CC', '[7*]C1SC(=S)N([10*])C1=O', '[7*]C[8*]', '[16*]c1ccc([16*])c2nsnc12', '[16*]c1ccc2c(c1)C(CC(CC)CCCC)(CC(CC)CCCC)c1cc3c(cc1-2)C(CC(CC)CCCC)(CC(CC)CCCC)c1cc([16*])ccc1-3']","[0, 0, 0, 0, 0, 132, 6, 57, 7, 34, 59, 1, 22, 76, 12, 127, 141]"
J71,TTz1,-5.353333333333333,-3.4318181818181825,-5.59,-3.66,0.5,CF,15.0,DIO,25.0,8.77,8.77,0.9,63.18,"['[8*]CC(CCCCCC)CCCCCCCC', '[14*]c1ccc(C)s1', '[14*]c1ccc([Si](CCC)(CCC)CCC)s1', '[14*]c1ccc([14*])s1', '[9*]n1nc2c([16*])c(F)c(F)c([16*])c2n1', '[14*]c1cc2c([16*])c3sc(C)cc3c([16*])c2s1']","['[4*]CC(CCCC)CCCCCC', '[7*]C(C#N)C#N', '[7*]C[8*]', '[11*]S[11*]', '[16*]c1ccc([16*])c2nsnc12', '[14*]c1cc([16*])c([14*])s1', '[14*]c1nc2sc([14*])nc2s1']","['[8*]CC(CCCCCC)CCCCCCCC', '[14*]c1ccc(C)s1', '[14*]c1ccc([Si](CCC)(CCC)CCC)s1', '[14*]c1ccc([14*])s1', '[9*]n1nc2c([16*])c(F)c(F)c([16*])c2n1', '[14*]c1cc2c([16*])c3sc(C)cc3c([16*])c2s1', '.', '[4*]CC(CCCC)CCCCCC', '[7*]C(C#N)C#N', '[7*]C[8*]', '[11*]S[11*]', '[16*]c1ccc([16*])c2nsnc12', '[14*]c1cc([16*])c([14*])s1', '[14*]c1nc2sc([14*])nc2s1']","[0, 0, 0, 17, 6, 18, 7, 19, 9, 1, 33, 10, 12, 25, 127, 34, 142]"
J71,TTz2,-5.353333333333333,-3.4318181818181825,-5.45,-3.5,0.5,CF,15.0,DIO,25.0,6.3,6.3,0.92,53.73,"['[8*]CC(CCCCCC)CCCCCCCC', '[14*]c1ccc(C)s1', '[14*]c1ccc([Si](CCC)(CCC)CCC)s1', '[14*]c1ccc([14*])s1', '[9*]n1nc2c([16*])c(F)c(F)c([16*])c2n1', '[14*]c1cc2c([16*])c3sc(C)cc3c([16*])c2s1']","['[4*]CC(CCCC)CCCCCC', '[8*]CC', '[11*]S[11*]', '[9*]n1c(=C(C#N)C#N)s/c(=C/c2ccc([16*])c3nsnc23)c1=O', '[14*]c1cc([16*])c([14*])s1', '[14*]c1nc2sc([14*])nc2s1']","['[8*]CC(CCCCCC)CCCCCCCC', '[14*]c1ccc(C)s1', '[14*]c1ccc([Si](CCC)(CCC)CCC)s1', '[14*]c1ccc([14*])s1', '[9*]n1nc2c([16*])c(F)c(F)c([16*])c2n1', '[14*]c1cc2c([16*])c3sc(C)cc3c([16*])c2s1', '.', '[4*]CC(CCCC)CCCCCC', '[8*]CC', '[11*]S[11*]', '[9*]n1c(=C(C#N)C#N)s/c(=C/c2ccc([16*])c3nsnc23)c1=O', '[14*]c1cc([16*])c([14*])s1', '[14*]c1nc2sc([14*])nc2s1']","[0, 0, 0, 0, 17, 6, 18, 7, 19, 9, 1, 33, 22, 25, 143, 34, 142]"
PBDB-T,FTIC-C8C6,-5.297714285714285,-3.4170000000000003,-5.62,-3.83,1.0,DCB,8.0,DIO,25.0,9.91,9.99,0.92,67.46,"['[8*]CC(CC)CCCC', '[14*]c1ccc(C)s1', '[14*]c1ccc([14*])s1', '[14*]c1sc([14*])c2c1C(=O)c1c([14*])sc([14*])c1C2=O', '[14*]c1cc2c([16*])c3sc(C)cc3c([16*])c2s1']","['[7*]C(C#N)C#N', '[7*]C1C(=O)c2ccccc2C1[7*]', '[7*]C[8*]', '[14*]c1cc2c(s1)-c1cc3c(cc1C2(CCCCCC)CCCCCC)-c1cc2c(cc1C3(CCCCCCCC)CCCCCCCC)-c1sc([14*])cc1C2(CCCCCC)CCCCCC']","['[8*]CC(CC)CCCC', '[14*]c1ccc(C)s1', '[14*]c1ccc([14*])s1', '[14*]c1sc([14*])c2c1C(=O)c1c([14*])sc([14*])c1C2=O', '[14*]c1cc2c([16*])c3sc(C)cc3c([16*])c2s1', '.', '[7*]C(C#N)C#N', '[7*]C1C(=O)c2ccccc2C1[7*]', '[7*]C[8*]', '[14*]c1cc2c(s1)-c1cc3c(cc1C2(CCCCCC)CCCCCC)-c1cc2c(cc1C3(CCCCCCCC)CCCCCCCC)-c1sc([14*])cc1C2(CCCCCC)CCCCCC']","[0, 0, 0, 0, 0, 0, 0, 5, 6, 7, 30, 9, 1, 10, 11, 12, 144]"
PBDB-T,FTIC-C6C6,-5.297714285714285,-3.4170000000000003,-5.6,-3.81,1.0,DCB,8.0,DIO,25.0,9.18,9.21,0.91,63.17,"['[8*]CC(CC)CCCC', '[14*]c1ccc(C)s1', '[14*]c1ccc([14*])s1', '[14*]c1sc([14*])c2c1C(=O)c1c([14*])sc([14*])c1C2=O', '[14*]c1cc2c([16*])c3sc(C)cc3c([16*])c2s1']","['[7*]C(C#N)C#N', '[7*]C1C(=O)c2ccccc2C1[7*]', '[7*]C[8*]', '[14*]c1cc2c(s1)-c1cc3c(cc1C2(CCCCCC)CCCCCC)-c1cc2c(cc1C3(CCCCCC)CCCCCC)-c1sc([14*])cc1C2(CCCCCC)CCCCCC']","['[8*]CC(CC)CCCC', '[14*]c1ccc(C)s1', '[14*]c1ccc([14*])s1', '[14*]c1sc([14*])c2c1C(=O)c1c([14*])sc([14*])c1C2=O', '[14*]c1cc2c([16*])c3sc(C)cc3c([16*])c2s1', '.', '[7*]C(C#N)C#N', '[7*]C1C(=O)c2ccccc2C1[7*]', '[7*]C[8*]', '[14*]c1cc2c(s1)-c1cc3c(cc1C2(CCCCCC)CCCCCC)-c1cc2c(cc1C3(CCCCCC)CCCCCC)-c1sc([14*])cc1C2(CCCCCC)CCCCCC']","[0, 0, 0, 0, 0, 0, 0, 5, 6, 7, 30, 9, 1, 10, 11, 12, 145]"
PBDB-T,IXIC,-5.297714285714285,-3.4170000000000003,-5.13,-3.78,1.0,CF,14.0,_,100.0,11.3,11.21,0.82,65.4,"['[8*]CC(CC)CCCC', '[14*]c1ccc(C)s1', '[14*]c1ccc([14*])s1', '[14*]c1sc([14*])c2c1C(=O)c1c([14*])sc([14*])c1C2=O', '[14*]c1cc2c([16*])c3sc(C)cc3c([16*])c2s1']","['[7*]C(C#N)C#N', '[7*]C1C(=O)c2ccccc2C1[7*]', '[7*]C[8*]', '[8*]CCCCCC', '[14*]c1cc2sc3c(c2s1)C(c1ccc([16*])cc1)(c1ccc([16*])cc1)c1c-3sc2c3c(sc12)-c1sc2cc([14*])sc2c1C3(c1ccc([16*])cc1)c1ccc([16*])cc1']","['[8*]CC(CC)CCCC', '[14*]c1ccc(C)s1', '[14*]c1ccc([14*])s1', '[14*]c1sc([14*])c2c1C(=O)c1c([14*])sc([14*])c1C2=O', '[14*]c1cc2c([16*])c3sc(C)cc3c([16*])c2s1', '.', '[7*]C(C#N)C#N', '[7*]C1C(=O)c2ccccc2C1[7*]', '[7*]C[8*]', '[8*]CCCCCC', '[14*]c1cc2sc3c(c2s1)C(c1ccc([16*])cc1)(c1ccc([16*])cc1)c1c-3sc2c3c(sc12)-c1sc2cc([14*])sc2c1C3(c1ccc([16*])cc1)c1ccc([16*])cc1']","[0, 0, 0, 0, 0, 0, 5, 6, 7, 30, 9, 1, 10, 11, 12, 13, 14]"
PBDB-T,IXIC-4Cl,-5.297714285714285,-3.4170000000000003,-5.2,-3.95,1.0,CF,14.0,_,100.0,11.2,11.25,0.69,71.2,"['[8*]CC(CC)CCCC', '[14*]c1ccc(C)s1', '[14*]c1ccc([14*])s1', '[14*]c1sc([14*])c2c1C(=O)c1c([14*])sc([14*])c1C2=O', '[14*]c1cc2c([16*])c3sc(C)cc3c([16*])c2s1']","['[7*]C(C#N)C#N', '[7*]C1C(=O)c2cc(Cl)c(Cl)cc2C1[7*]', '[7*]C[8*]', '[8*]CCCCCC', '[14*]c1cc2sc3c(c2s1)C(c1ccc([16*])cc1)(c1ccc([16*])cc1)c1c-3sc2c3c(sc12)-c1sc2cc([14*])sc2c1C3(c1ccc([16*])cc1)c1ccc([16*])cc1']","['[8*]CC(CC)CCCC', '[14*]c1ccc(C)s1', '[14*]c1ccc([14*])s1', '[14*]c1sc([14*])c2c1C(=O)c1c([14*])sc([14*])c1C2=O', '[14*]c1cc2c([16*])c3sc(C)cc3c([16*])c2s1', '.', '[7*]C(C#N)C#N', '[7*]C1C(=O)c2cc(Cl)c(Cl)cc2C1[7*]', '[7*]C[8*]', '[8*]CCCCCC', '[14*]c1cc2sc3c(c2s1)C(c1ccc([16*])cc1)(c1ccc([16*])cc1)c1c-3sc2c3c(sc12)-c1sc2cc([14*])sc2c1C3(c1ccc([16*])cc1)c1ccc([16*])cc1']","[0, 0, 0, 0, 0, 0, 5, 6, 7, 30, 9, 1, 10, 41, 12, 13, 14]"
HFQx-T,ITTC,-5.45,-3.5,-5.49,-3.85,1.0,CF,18.0,_,130.0,10.4,10.3,0.88,71.0,"['[4*]CC(CC)CCCC', '[3*]O[3*]', '[8*]CC(CC)CCCC', '[14*]c1ccc([14*])s1', '[16*]c1cc(F)c([16*])c(F)c1', '[14*]c1ccc(C)s1', '[14*]c1cc2c([16*])c3sc(C)cc3c([16*])c2s1', '[14*]c1nc2c([16*])c(F)c(F)c([16*])c2nc1[14*]']","['[7*]C(C#N)C#N', '[7*]C1C(=O)c2cscc2C1[7*]', '[7*]C[8*]', '[8*]CCCCCC', '[14*]c1cc2sc3c(c2s1)C(c1ccc([16*])cc1)(c1ccc([16*])cc1)c1cc2c(cc1-3)C(c1ccc([16*])cc1)(c1ccc([16*])cc1)c1c-2sc2cc([14*])sc12']","['[4*]CC(CC)CCCC', '[3*]O[3*]', '[8*]CC(CC)CCCC', '[14*]c1ccc([14*])s1', '[16*]c1cc(F)c([16*])c(F)c1', '[14*]c1ccc(C)s1', '[14*]c1cc2c([16*])c3sc(C)cc3c([16*])c2s1', '[14*]c1nc2c([16*])c(F)c(F)c([16*])c2nc1[14*]', '.', '[7*]C(C#N)C#N', '[7*]C1C(=O)c2cscc2C1[7*]', '[7*]C[8*]', '[8*]CCCCCC', '[14*]c1cc2sc3c(c2s1)C(c1ccc([16*])cc1)(c1ccc([16*])cc1)c1cc2c(cc1-3)C(c1ccc([16*])cc1)(c1ccc([16*])cc1)c1c-2sc2cc([14*])sc12']","[0, 0, 0, 3, 2, 5, 7, 37, 6, 9, 83, 1, 10, 44, 12, 13, 15]"
PBDB-T,IT-OM-1,-5.297714285714285,-3.4170000000000003,-5.5,-3.76,1.0,CB,20.0,_,150.0,6.3,6.34,1.01,51.0,"['[8*]CC(CC)CCCC', '[14*]c1ccc(C)s1', '[14*]c1ccc([14*])s1', '[14*]c1sc([14*])c2c1C(=O)c1c([14*])sc([14*])c1C2=O', '[14*]c1cc2c([16*])c3sc(C)cc3c([16*])c2s1']","['[3*]OC', '[7*]C(C#N)C#N', '[7*]C1C(=O)c2cccc([16*])c2C1[7*]', '[7*]C[8*]', '[8*]CCCCCC', '[14*]c1cc2sc3c(c2s1)C(c1ccc([16*])cc1)(c1ccc([16*])cc1)c1cc2c(cc1-3)C(c1ccc([16*])cc1)(c1ccc([16*])cc1)c1c-2sc2cc([14*])sc12']","['[8*]CC(CC)CCCC', '[14*]c1ccc(C)s1', '[14*]c1ccc([14*])s1', '[14*]c1sc([14*])c2c1C(=O)c1c([14*])sc([14*])c1C2=O', '[14*]c1cc2c([16*])c3sc(C)cc3c([16*])c2s1', '.', '[3*]OC', '[7*]C(C#N)C#N', '[7*]C1C(=O)c2cccc([16*])c2C1[7*]', '[7*]C[8*]', '[8*]CCCCCC', '[14*]c1cc2sc3c(c2s1)C(c1ccc([16*])cc1)(c1ccc([16*])cc1)c1cc2c(cc1-3)C(c1ccc([16*])cc1)(c1ccc([16*])cc1)c1c-2sc2cc([14*])sc12']","[0, 0, 0, 0, 0, 5, 6, 7, 30, 9, 1, 69, 10, 147, 12, 13, 15]"
PBDB-T,IT-OM-2,-5.297714285714285,-3.4170000000000003,-5.49,-3.86,1.0,CB,20.0,_,150.0,11.8,11.9,0.93,73.0,"['[8*]CC(CC)CCCC', '[14*]c1ccc(C)s1', '[14*]c1ccc([14*])s1', '[14*]c1sc([14*])c2c1C(=O)c1c([14*])sc([14*])c1C2=O', '[14*]c1cc2c([16*])c3sc(C)cc3c([16*])c2s1']","['[3*]OC', '[7*]C(C#N)C#N', '[7*]C1C(=O)c2ccc([16*])cc2C1[7*]', '[7*]C[8*]', '[8*]CCCCCC', '[14*]c1cc2sc3c(c2s1)C(c1ccc([16*])cc1)(c1ccc([16*])cc1)c1cc2c(cc1-3)C(c1ccc([16*])cc1)(c1ccc([16*])cc1)c1c-2sc2cc([14*])sc12']","['[8*]CC(CC)CCCC', '[14*]c1ccc(C)s1', '[14*]c1ccc([14*])s1', '[14*]c1sc([14*])c2c1C(=O)c1c([14*])sc([14*])c1C2=O', '[14*]c1cc2c([16*])c3sc(C)cc3c([16*])c2s1', '.', '[3*]OC', '[7*]C(C#N)C#N', '[7*]C1C(=O)c2ccc([16*])cc2C1[7*]', '[7*]C[8*]', '[8*]CCCCCC', '[14*]c1cc2sc3c(c2s1)C(c1ccc([16*])cc1)(c1ccc([16*])cc1)c1cc2c(cc1-3)C(c1ccc([16*])cc1)(c1ccc([16*])cc1)c1c-2sc2cc([14*])sc12']","[0, 0, 0, 0, 0, 5, 6, 7, 30, 9, 1, 69, 10, 70, 12, 13, 15]"
PBDB-T,IT-OM-3,-5.297714285714285,-3.4170000000000003,-5.52,-3.8,1.0,CB,20.0,_,150.0,10.8,10.8,0.97,68.0,"['[8*]CC(CC)CCCC', '[14*]c1ccc(C)s1', '[14*]c1ccc([14*])s1', '[14*]c1sc([14*])c2c1C(=O)c1c([14*])sc([14*])c1C2=O', '[14*]c1cc2c([16*])c3sc(C)cc3c([16*])c2s1']","['[3*]OC', '[7*]C(C#N)C#N', '[7*]C1C(=O)c2cc([16*])ccc2C1[7*]', '[7*]C[8*]', '[8*]CCCCCC', '[14*]c1cc2sc3c(c2s1)C(c1ccc([16*])cc1)(c1ccc([16*])cc1)c1cc2c(cc1-3)C(c1ccc([16*])cc1)(c1ccc([16*])cc1)c1c-2sc2cc([14*])sc12']","['[8*]CC(CC)CCCC', '[14*]c1ccc(C)s1', '[14*]c1ccc([14*])s1', '[14*]c1sc([14*])c2c1C(=O)c1c([14*])sc([14*])c1C2=O', '[14*]c1cc2c([16*])c3sc(C)cc3c([16*])c2s1', '.', '[3*]OC', '[7*]C(C#N)C#N', '[7*]C1C(=O)c2cc([16*])ccc2C1[7*]', '[7*]C[8*]', '[8*]CCCCCC', '[14*]c1cc2sc3c(c2s1)C(c1ccc([16*])cc1)(c1ccc([16*])cc1)c1cc2c(cc1-3)C(c1ccc([16*])cc1)(c1ccc([16*])cc1)c1c-2sc2cc([14*])sc12']","[0, 0, 0, 0, 0, 5, 6, 7, 30, 9, 1, 69, 10, 148, 12, 13, 15]"
PBDB-T,ITCT,-5.297714285714285,-3.4170000000000003,-5.596666666666667,-3.796666666666667,1.0,CB,20.0,_,120.0,11.27,10.94,0.85,72.0,"['[8*]CC(CC)CCCC', '[14*]c1ccc(C)s1', '[14*]c1ccc([14*])s1', '[14*]c1sc([14*])c2c1C(=O)c1c([14*])sc([14*])c1C2=O', '[14*]c1cc2c([16*])c3sc(C)cc3c([16*])c2s1']","['[7*]C(C#N)C#N', '[7*]C1C(=O)c2cscc2C1[7*]', '[7*]C[8*]', '[8*]CCCCCC', '[14*]c1cc2sc3c(c2s1)C(c1ccc([16*])cc1)(c1ccc([16*])cc1)c1cc2c(cc1-3)C(c1ccc([16*])cc1)(c1ccc([16*])cc1)c1c-2sc2cc([14*])sc12']","['[8*]CC(CC)CCCC', '[14*]c1ccc(C)s1', '[14*]c1ccc([14*])s1', '[14*]c1sc([14*])c2c1C(=O)c1c([14*])sc([14*])c1C2=O', '[14*]c1cc2c([16*])c3sc(C)cc3c([16*])c2s1', '.', '[7*]C(C#N)C#N', '[7*]C1C(=O)c2cscc2C1[7*]', '[7*]C[8*]', '[8*]CCCCCC', '[14*]c1cc2sc3c(c2s1)C(c1ccc([16*])cc1)(c1ccc([16*])cc1)c1cc2c(cc1-3)C(c1ccc([16*])cc1)(c1ccc([16*])cc1)c1c-2sc2cc([14*])sc12']","[0, 0, 0, 0, 0, 0, 5, 6, 7, 30, 9, 1, 10, 44, 12, 13, 15]"
PBDB-T,ITCPTC-Th,-5.297714285714285,-3.4170000000000003,-5.68,-4.03,1.0,CB,20.0,DIO,25.0,10.61,10.61,0.856,72.7,"['[8*]CC(CC)CCCC', '[14*]c1ccc(C)s1', '[14*]c1ccc([14*])s1', '[14*]c1sc([14*])c2c1C(=O)c1c([14*])sc([14*])c1C2=O', '[14*]c1cc2c([16*])c3sc(C)cc3c([16*])c2s1']","['[7*]C(C#N)C#N', '[7*]C1C(=O)c2cscc2C1[7*]', '[7*]C[8*]', '[8*]CCCCCC', '[14*]c1ccc(C2(c3ccc([14*])s3)c3cc4c(cc3-c3sc5cc([14*])sc5c32)C(c2ccc([14*])s2)(c2ccc([14*])s2)c2c-4sc3cc([14*])sc23)s1']","['[8*]CC(CC)CCCC', '[14*]c1ccc(C)s1', '[14*]c1ccc([14*])s1', '[14*]c1sc([14*])c2c1C(=O)c1c([14*])sc([14*])c1C2=O', '[14*]c1cc2c([16*])c3sc(C)cc3c([16*])c2s1', '.', '[7*]C(C#N)C#N', '[7*]C1C(=O)c2cscc2C1[7*]', '[7*]C[8*]', '[8*]CCCCCC', '[14*]c1ccc(C2(c3ccc([14*])s3)c3cc4c(cc3-c3sc5cc([14*])sc5c32)C(c2ccc([14*])s2)(c2ccc([14*])s2)c2c-4sc3cc([14*])sc23)s1']","[0, 0, 0, 0, 0, 0, 5, 6, 7, 30, 9, 1, 10, 44, 12, 13, 67]"
PBDB-T,ITCPTC-Se,-5.297714285714285,-3.4170000000000003,-5.65,-4.0,1.0,CB,20.0,DIO,25.0,9.02,9.02,0.869,68.3,"['[8*]CC(CC)CCCC', '[14*]c1ccc(C)s1', '[14*]c1ccc([14*])s1', '[14*]c1sc([14*])c2c1C(=O)c1c([14*])sc([14*])c1C2=O', '[14*]c1cc2c([16*])c3sc(C)cc3c([16*])c2s1']","['[7*]C(C#N)C#N', '[7*]C1C(=O)c2cscc2C1[7*]', '[7*]C[8*]', '[14*]c1cc2sc3c(c2s1)C(c1ccc(CCCCCC)[se]1)(c1ccc(CCCCCC)[se]1)c1cc2c(cc1-3)C(c1ccc(CCCCCC)[se]1)(c1ccc(CCCCCC)[se]1)c1c-2sc2cc([14*])sc12']","['[8*]CC(CC)CCCC', '[14*]c1ccc(C)s1', '[14*]c1ccc([14*])s1', '[14*]c1sc([14*])c2c1C(=O)c1c([14*])sc([14*])c1C2=O', '[14*]c1cc2c([16*])c3sc(C)cc3c([16*])c2s1', '.', '[7*]C(C#N)C#N', '[7*]C1C(=O)c2cscc2C1[7*]', '[7*]C[8*]', '[14*]c1cc2sc3c(c2s1)C(c1ccc(CCCCCC)[se]1)(c1ccc(CCCCCC)[se]1)c1cc2c(cc1-3)C(c1ccc(CCCCCC)[se]1)(c1ccc(CCCCCC)[se]1)c1c-2sc2cc([14*])sc12']","[0, 0, 0, 0, 0, 0, 0, 5, 6, 7, 30, 9, 1, 10, 44, 12, 151]"
PTB7-Th,IEICO-4F,-5.204782608695651,-3.5391891891891896,-5.309971428571429,-3.851028571428572,0.667,CB,37.5,DIO,100.0,11.13,11.13,0.72,61.45,"['[3*]O[3*]', '[4*]CC(CC)CCCC', '[1*]C([6*])=O', '[8*]CC(CC)CCCC', '[14*]c1sc2c([14*])sc(C)c2c1F', '[14*]c1ccc([14*])s1', '[14*]c1cc2c([16*])c3sc(C)cc3c([16*])c2s1']","['[4*]CC(CC)CCCC', '[3*]O[3*]', '[7*]C(C#N)C#N', '[7*]C1C(=O)c2cc(F)c(F)cc2C1[7*]', '[7*]C[8*]', '[8*]CCCCCC', '[14*]c1cc([16*])c([14*])s1', '[14*]c1cc2c(s1)-c1cc3c(cc1C2(c1ccc([16*])cc1)c1ccc([16*])cc1)-c1sc([14*])cc1C3(c1ccc([16*])cc1)c1ccc([16*])cc1']","['[3*]O[3*]', '[4*]CC(CC)CCCC', '[1*]C([6*])=O', '[8*]CC(CC)CCCC', '[14*]c1sc2c([14*])sc(C)c2c1F', '[14*]c1ccc([14*])s1', '[14*]c1cc2c([16*])c3sc(C)cc3c([16*])c2s1', '.', '[4*]CC(CC)CCCC', '[3*]O[3*]', '[7*]C(C#N)C#N', '[7*]C1C(=O)c2cc(F)c(F)cc2C1[7*]', '[7*]C[8*]', '[8*]CCCCCC', '[14*]c1cc([16*])c([14*])s1', '[14*]c1cc2c(s1)-c1cc3c(cc1C2(c1ccc([16*])cc1)c1ccc([16*])cc1)-c1sc([14*])cc1C3(c1ccc([16*])cc1)c1ccc([16*])cc1']","[0, 2, 3, 4, 5, 35, 7, 9, 1, 3, 2, 10, 42, 12, 13, 34, 38]"
PBDB-T,ITCC,-5.297714285714285,-3.4170000000000003,-5.47,-3.76,1.0,CB,20.0,DIO,100.0,11.28,11.28,0.98,71.32,"['[8*]CC(CC)CCCC', '[14*]c1ccc(C)s1', '[14*]c1ccc([14*])s1', '[14*]c1sc([14*])c2c1C(=O)c1c([14*])sc([14*])c1C2=O', '[14*]c1cc2c([16*])c3sc(C)cc3c([16*])c2s1']","['[7*]C(C#N)C#N', '[7*]C1C(=O)c2sccc2C1[7*]', '[7*]C[8*]', '[8*]CCCCCC', '[14*]c1cc2sc3c(c2s1)C(c1ccc([16*])cc1)(c1ccc([16*])cc1)c1cc2c(cc1-3)C(c1ccc([16*])cc1)(c1ccc([16*])cc1)c1c-2sc2cc([14*])sc12']","['[8*]CC(CC)CCCC', '[14*]c1ccc(C)s1', '[14*]c1ccc([14*])s1', '[14*]c1sc([14*])c2c1C(=O)c1c([14*])sc([14*])c1C2=O', '[14*]c1cc2c([16*])c3sc(C)cc3c([16*])c2s1', '.', '[7*]C(C#N)C#N', '[7*]C1C(=O)c2sccc2C1[7*]', '[7*]C[8*]', '[8*]CCCCCC', '[14*]c1cc2sc3c(c2s1)C(c1ccc([16*])cc1)(c1ccc([16*])cc1)c1cc2c(cc1-3)C(c1ccc([16*])cc1)(c1ccc([16*])cc1)c1c-2sc2cc([14*])sc12']","[0, 0, 0, 0, 0, 0, 5, 6, 7, 30, 9, 1, 10, 86, 12, 13, 15]"
PTB7-Th,IFTIC,-5.204782608695651,-3.5391891891891896,-5.42,-3.85,0.5,o-DCB,25.0,_,25.0,5.77,5.71,0.9,53.5,"['[3*]O[3*]', '[4*]CC(CC)CCCC', '[1*]C([6*])=O', '[8*]CC(CC)CCCC', '[14*]c1sc2c([14*])sc(C)c2c1F', '[14*]c1ccc([14*])s1', '[14*]c1cc2c([16*])c3sc(C)cc3c([16*])c2s1']","['[7*]C(C#N)C#N', '[7*]C1C(=O)c2ccccc2C1[7*]', '[7*]C[8*]', '[14*]c1ccc([14*])s1', '[16*]c1ccc2c(c1)C(CCCCCCCC)(CCCCCCCC)c1cc3c(cc1-2)C(CCCCCCCC)(CCCCCCCC)c1cc([16*])ccc1-3']","['[3*]O[3*]', '[4*]CC(CC)CCCC', '[1*]C([6*])=O', '[8*]CC(CC)CCCC', '[14*]c1sc2c([14*])sc(C)c2c1F', '[14*]c1ccc([14*])s1', '[14*]c1cc2c([16*])c3sc(C)cc3c([16*])c2s1', '.', '[7*]C(C#N)C#N', '[7*]C1C(=O)c2ccccc2C1[7*]', '[7*]C[8*]', '[14*]c1ccc([14*])s1', '[16*]c1ccc2c(c1)C(CCCCCCCC)(CCCCCCCC)c1cc3c(cc1-2)C(CCCCCCCC)(CCCCCCCC)c1cc([16*])ccc1-3']","[0, 0, 0, 0, 2, 3, 4, 5, 35, 7, 9, 1, 10, 11, 12, 7, 152]"