Donor,Acceptor,HOMO_D_eV,LUMO_D_eV,HOMO_A_eV,LUMO_A_eV,D_A_ratio_m_m,solvent,total_solids_conc_mg_mL,solvent_additive,annealing_temperature,PCE_percent,calc_PCE_percent,Voc_V,Jsc_mA_cm_pow_neg2,FF_percent,Donor_BRICS,Acceptor_BRICS,DA_pair_BRICS,DA_tokenized_BRICS
PTB7-Th,ITIC3,-5.204782608695651,-3.5391891891891896,-5.54,-3.9,0.667,CF,10.0,_,25.0,8.09,8.09,0.763,16.8,63.1,"['[3*]O[3*]', '[4*]CC(CC)CCCC', '[1*]C([6*])=O', '[8*]CC(CC)CCCC', '[14*]c1sc2c([14*])sc(C)c2c1F', '[14*]c1ccc([14*])s1', '[14*]c1cc2c([16*])c3sc(C)cc3c([16*])c2s1']","['[7*]C(C#N)C#N', '[7*]C1C(=O)c2cc(F)ccc2C1[7*]', '[7*]C[8*]', '[8*]CCCCCC', '[14*]c1cc2sc3c(c2s1)C(c1ccc([16*])cc1)(c1ccc([16*])cc1)c1cc2c(cc1-3)C(c1ccc([16*])cc1)(c1ccc([16*])cc1)c1c-2sc2cc([14*])sc12']","['[3*]O[3*]', '[4*]CC(CC)CCCC', '[1*]C([6*])=O', '[8*]CC(CC)CCCC', '[14*]c1sc2c([14*])sc(C)c2c1F', '[14*]c1ccc([14*])s1', '[14*]c1cc2c([16*])c3sc(C)cc3c([16*])c2s1', '.', '[7*]C(C#N)C#N', '[7*]C1C(=O)c2cc(F)ccc2C1[7*]', '[7*]C[8*]', '[8*]CCCCCC', '[14*]c1cc2sc3c(c2s1)C(c1ccc([16*])cc1)(c1ccc([16*])cc1)c1cc2c(cc1-3)C(c1ccc([16*])cc1)(c1ccc([16*])cc1)c1c-2sc2cc([14*])sc12']","[0, 0, 0, 0, 2, 3, 4, 5, 35, 7, 9, 1, 10, 68, 12, 13, 15]"
P3HT,ATT-3,-5.057777777777777,-2.989444444444445,-5.32,-3.4,1.25,CF,16.2,_,130.0,6.26,6.28,0.927,10.93,62.0,"['[8*]CCCCCC', '[14*]c1sc(C)cc1[16*]', '[14*]c1cc([16*])c(C)s1', '[14*]c1cc([16*])c([14*])s1']","['[3*]O[3*]', '[4*]CCCCCCCC', '[1*]C([6*])=O', '[8*]CC', '[7*]C1SC(=S)N([10*])C1=O', '[7*]C[8*]', '[8*]CCCCCC', '[14*]c1cc2c([14*])sc([14*])c2s1', '[14*]c1cc2c(s1)-c1cc3c(cc1C2(c1ccc([16*])cc1)c1ccc([16*])cc1)-c1sc([14*])cc1C3(c1ccc([16*])cc1)c1ccc([16*])cc1']","['[8*]CCCCCC', '[14*]c1sc(C)cc1[16*]', '[14*]c1cc([16*])c(C)s1', '[14*]c1cc([16*])c([14*])s1', '.', '[3*]O[3*]', '[4*]CCCCCCCC', '[1*]C([6*])=O', '[8*]CC', '[7*]C1SC(=S)N([10*])C1=O', '[7*]C[8*]', '[8*]CCCCCC', '[14*]c1cc2c([14*])sc([14*])c2s1', '[14*]c1cc2c(s1)-c1cc3c(cc1C2(c1ccc([16*])cc1)c1ccc([16*])cc1)-c1sc([14*])cc1C3(c1ccc([16*])cc1)c1ccc([16*])cc1']","[0, 0, 0, 13, 102, 57, 34, 1, 2, 51, 4, 22, 76, 12, 13, 99, 38]"
PBDB-T,IT-O1,-5.297714285714285,-3.4170000000000003,-5.38,-3.33,1.0,CB,10.0,_,130.0,11.6,11.62,0.93,17.35,72.0,"['[8*]CC(CC)CCCC', '[14*]c1ccc(C)s1', '[14*]c1ccc([14*])s1', '[14*]c1sc([14*])c2c1C(=O)c1c([14*])sc([14*])c1C2=O', '[14*]c1cc2c([16*])c3sc(C)cc3c([16*])c2s1']","['[3*]OC', '[7*]C(C#N)C#N', '[7*]C1C(=O)c2ccc([16*])cc2C1[7*]', '[7*]C[8*]', '[8*]CCCCCC', '[14*]c1cc2sc3c(c2s1)C(c1ccc([16*])cc1)(c1ccc([16*])cc1)c1cc2c(cc1-3)C(c1ccc([16*])cc1)(c1ccc([16*])cc1)c1c-2sc2cc([14*])sc12']","['[8*]CC(CC)CCCC', '[14*]c1ccc(C)s1', '[14*]c1ccc([14*])s1', '[14*]c1sc([14*])c2c1C(=O)c1c([14*])sc([14*])c1C2=O', '[14*]c1cc2c([16*])c3sc(C)cc3c([16*])c2s1', '.', '[3*]OC', '[7*]C(C#N)C#N', '[7*]C1C(=O)c2ccc([16*])cc2C1[7*]', '[7*]C[8*]', '[8*]CCCCCC', '[14*]c1cc2sc3c(c2s1)C(c1ccc([16*])cc1)(c1ccc([16*])cc1)c1cc2c(cc1-3)C(c1ccc([16*])cc1)(c1ccc([16*])cc1)c1c-2sc2cc([14*])sc12']","[0, 0, 0, 0, 0, 5, 6, 7, 30, 9, 1, 69, 10, 70, 12, 13, 15]"
PBDB-T,IT-O2,-5.297714285714285,-3.4170000000000003,-5.37,-3.31,1.0,CB,10.0,_,130.0,9.3,9.31,0.97,15.34,62.6,"['[8*]CC(CC)CCCC', '[14*]c1ccc(C)s1', '[14*]c1ccc([14*])s1', '[14*]c1sc([14*])c2c1C(=O)c1c([14*])sc([14*])c1C2=O', '[14*]c1cc2c([16*])c3sc(C)cc3c([16*])c2s1']","['[4*]CC', '[3*]O[3*]', '[7*]C(C#N)C#N', '[7*]C1C(=O)c2ccc([16*])cc2C1[7*]', '[7*]C[8*]', '[8*]CCCCCC', '[14*]c1cc2sc3c(c2s1)C(c1ccc([16*])cc1)(c1ccc([16*])cc1)c1cc2c(cc1-3)C(c1ccc([16*])cc1)(c1ccc([16*])cc1)c1c-2sc2cc([14*])sc12']","['[8*]CC(CC)CCCC', '[14*]c1ccc(C)s1', '[14*]c1ccc([14*])s1', '[14*]c1sc([14*])c2c1C(=O)c1c([14*])sc([14*])c1C2=O', '[14*]c1cc2c([16*])c3sc(C)cc3c([16*])c2s1', '.', '[4*]CC', '[3*]O[3*]', '[7*]C(C#N)C#N', '[7*]C1C(=O)c2ccc([16*])cc2C1[7*]', '[7*]C[8*]', '[8*]CCCCCC', '[14*]c1cc2sc3c(c2s1)C(c1ccc([16*])cc1)(c1ccc([16*])cc1)c1cc2c(cc1-3)C(c1ccc([16*])cc1)(c1ccc([16*])cc1)c1c-2sc2cc([14*])sc12']","[0, 0, 0, 0, 5, 6, 7, 30, 9, 1, 116, 2, 10, 70, 12, 13, 15]"
PBDB-T,IT-O3,-5.297714285714285,-3.4170000000000003,-5.36,-3.31,1.0,CB,10.0,_,130.0,4.9,4.94,0.98,9.8,51.4,"['[8*]CC(CC)CCCC', '[14*]c1ccc(C)s1', '[14*]c1ccc([14*])s1', '[14*]c1sc([14*])c2c1C(=O)c1c([14*])sc([14*])c1C2=O', '[14*]c1cc2c([16*])c3sc(C)cc3c([16*])c2s1']","['[4*]CCC', '[3*]O[3*]', '[7*]C(C#N)C#N', '[7*]C1C(=O)c2ccc([16*])cc2C1[7*]', '[7*]C[8*]', '[8*]CCCCCC', '[14*]c1cc2sc3c(c2s1)C(c1ccc([16*])cc1)(c1ccc([16*])cc1)c1cc2c(cc1-3)C(c1ccc([16*])cc1)(c1ccc([16*])cc1)c1c-2sc2cc([14*])sc12']","['[8*]CC(CC)CCCC', '[14*]c1ccc(C)s1', '[14*]c1ccc([14*])s1', '[14*]c1sc([14*])c2c1C(=O)c1c([14*])sc([14*])c1C2=O', '[14*]c1cc2c([16*])c3sc(C)cc3c([16*])c2s1', '.', '[4*]CCC', '[3*]O[3*]', '[7*]C(C#N)C#N', '[7*]C1C(=O)c2ccc([16*])cc2C1[7*]', '[7*]C[8*]', '[8*]CCCCCC', '[14*]c1cc2sc3c(c2s1)C(c1ccc([16*])cc1)(c1ccc([16*])cc1)c1cc2c(cc1-3)C(c1ccc([16*])cc1)(c1ccc([16*])cc1)c1c-2sc2cc([14*])sc12']","[0, 0, 0, 0, 5, 6, 7, 30, 9, 1, 117, 2, 10, 70, 12, 13, 15]"
PBDB-T,IT-O4,-5.297714285714285,-3.4170000000000003,-5.35,-3.3,1.0,CB,10.0,_,130.0,4.2,4.17,0.95,9.16,47.9,"['[8*]CC(CC)CCCC', '[14*]c1ccc(C)s1', '[14*]c1ccc([14*])s1', '[14*]c1sc([14*])c2c1C(=O)c1c([14*])sc([14*])c1C2=O', '[14*]c1cc2c([16*])c3sc(C)cc3c([16*])c2s1']","['[4*]CCCC', '[3*]O[3*]', '[7*]C(C#N)C#N', '[7*]C1C(=O)c2ccc([16*])cc2C1[7*]', '[7*]C[8*]', '[8*]CCCCCC', '[14*]c1cc2sc3c(c2s1)C(c1ccc([16*])cc1)(c1ccc([16*])cc1)c1cc2c(cc1-3)C(c1ccc([16*])cc1)(c1ccc([16*])cc1)c1c-2sc2cc([14*])sc12']","['[8*]CC(CC)CCCC', '[14*]c1ccc(C)s1', '[14*]c1ccc([14*])s1', '[14*]c1sc([14*])c2c1C(=O)c1c([14*])sc([14*])c1C2=O', '[14*]c1cc2c([16*])c3sc(C)cc3c([16*])c2s1', '.', '[4*]CCCC', '[3*]O[3*]', '[7*]C(C#N)C#N', '[7*]C1C(=O)c2ccc([16*])cc2C1[7*]', '[7*]C[8*]', '[8*]CCCCCC', '[14*]c1cc2sc3c(c2s1)C(c1ccc([16*])cc1)(c1ccc([16*])cc1)c1cc2c(cc1-3)C(c1ccc([16*])cc1)(c1ccc([16*])cc1)c1c-2sc2cc([14*])sc12']","[0, 0, 0, 0, 5, 6, 7, 30, 9, 1, 118, 2, 10, 70, 12, 13, 15]"
J71,ZITI,-5.353333333333333,-3.4318181818181825,-5.550000000000001,-3.78,1.0,CF,17.0,_,120.0,13.04,12.91,0.93,20.24,68.61,"['[8*]CC(CCCCCC)CCCCCCCC', '[14*]c1ccc(C)s1', '[14*]c1ccc([Si](CCC)(CCC)CCC)s1', '[14*]c1ccc([14*])s1', '[9*]n1nc2c([16*])c(F)c(F)c([16*])c2n1', '[14*]c1cc2c([16*])c3sc(C)cc3c([16*])c2s1']","['[7*]C(C#N)C#N', '[7*]C1C(=O)c2cc(F)ccc2C1[7*]', '[7*]C[8*]', '[14*]c1cc2c(s1)-c1cc3c(cc1C2)C1C(c2cc4c(cc2C1(CC(CCCCCC)CCCCCCCC)CC(CCCCCC)CCCCCCCC)-c1sc([14*])cc1C4)C3(CC(CCCCCC)CCCCCCCC)CC(CCCCCC)CCCCCCCC']","['[8*]CC(CCCCCC)CCCCCCCC', '[14*]c1ccc(C)s1', '[14*]c1ccc([Si](CCC)(CCC)CCC)s1', '[14*]c1ccc([14*])s1', '[9*]n1nc2c([16*])c(F)c(F)c([16*])c2n1', '[14*]c1cc2c([16*])c3sc(C)cc3c([16*])c2s1', '.', '[7*]C(C#N)C#N', '[7*]C1C(=O)c2cc(F)ccc2C1[7*]', '[7*]C[8*]', '[14*]c1cc2c(s1)-c1cc3c(cc1C2)C1C(c2cc4c(cc2C1(CC(CCCCCC)CCCCCCCC)CC(CCCCCC)CCCCCCCC)-c1sc([14*])cc1C4)C3(CC(CCCCCC)CCCCCCCC)CC(CCCCCC)CCCCCCCC']","[0, 0, 0, 0, 0, 0, 17, 6, 18, 7, 19, 9, 1, 10, 68, 12, 124]"
P3HT,O-IDTBR,-5.057777777777777,-2.989444444444445,-5.535,-3.74,1.0,CB,24.0,_,130.0,6.3,6.0,0.72,13.9,60.0,"['[8*]CCCCCC', '[14*]c1sc(C)cc1[16*]', '[14*]c1cc([16*])c(C)s1', '[14*]c1cc([16*])c([14*])s1']","['[8*]CC', '[7*]C1SC(=S)N([10*])C1=O', '[7*]C[8*]', '[16*]c1ccc([16*])c2nsnc12', '[14*]c1cc2c(s1)-c1cc3c(cc1C2(CCCCCCCC)CCCCCCCC)-c1sc([14*])cc1C3(CCCCCCCC)CCCCCCCC']","['[8*]CCCCCC', '[14*]c1sc(C)cc1[16*]', '[14*]c1cc([16*])c(C)s1', '[14*]c1cc([16*])c([14*])s1', '.', '[8*]CC', '[7*]C1SC(=S)N([10*])C1=O', '[7*]C[8*]', '[16*]c1ccc([16*])c2nsnc12', '[14*]c1cc2c(s1)-c1cc3c(cc1C2(CCCCCCCC)CCCCCCCC)-c1sc([14*])cc1C3(CCCCCCCC)CCCCCCCC']","[0, 0, 0, 0, 0, 0, 0, 13, 102, 57, 34, 1, 22, 76, 12, 127, 128]"
P3HT,EH-IDTBR,-5.057777777777777,-2.989444444444445,-5.58,-3.9,1.0,CB,24.0,_,130.0,6.0,5.7,0.76,12.1,62.0,"['[8*]CCCCCC', '[14*]c1sc(C)cc1[16*]', '[14*]c1cc([16*])c(C)s1', '[14*]c1cc([16*])c([14*])s1']","['[8*]CC', '[7*]C1SC(=S)N([10*])C1=O', '[7*]C[8*]', '[16*]c1ccc([16*])c2nsnc12', '[14*]c1cc2c(s1)-c1cc3c(cc1C2(CC(CC)CCCC)CC(CC)CCCC)-c1sc([14*])cc1C3(CC(CC)CCCC)CC(CC)CCCC']","['[8*]CCCCCC', '[14*]c1sc(C)cc1[16*]', '[14*]c1cc([16*])c(C)s1', '[14*]c1cc([16*])c([14*])s1', '.', '[8*]CC', '[7*]C1SC(=S)N([10*])C1=O', '[7*]C[8*]', '[16*]c1ccc([16*])c2nsnc12', '[14*]c1cc2c(s1)-c1cc3c(cc1C2(CC(CC)CCCC)CC(CC)CCCC)-c1sc([14*])cc1C3(CC(CC)CCCC)CC(CC)CCCC']","[0, 0, 0, 0, 0, 0, 0, 13, 102, 57, 34, 1, 22, 76, 12, 127, 129]"
P3HT,FBR,-5.057777777777777,-2.989444444444445,-5.786666666666666,-3.673333333333333,1.0,CF:DCB (80:20),16.0,_,110.0,4.11,4.11,0.82,7.95,63.0,"['[8*]CCCCCC', '[14*]c1sc(C)cc1[16*]', '[14*]c1cc([16*])c(C)s1', '[14*]c1cc([16*])c([14*])s1']","['[8*]CC', '[7*]C1SC(=S)N([10*])C1=O', '[7*]C[8*]', '[16*]c1ccc([16*])c2nsnc12', '[16*]c1ccc2c(c1)C(CCCCCCCC)(CCCCCCCC)c1cc([16*])ccc1-2']","['[8*]CCCCCC', '[14*]c1sc(C)cc1[16*]', '[14*]c1cc([16*])c(C)s1', '[14*]c1cc([16*])c([14*])s1', '.', '[8*]CC', '[7*]C1SC(=S)N([10*])C1=O', '[7*]C[8*]', '[16*]c1ccc([16*])c2nsnc12', '[16*]c1ccc2c(c1)C(CCCCCCCC)(CCCCCCCC)c1cc([16*])ccc1-2']","[0, 0, 0, 0, 0, 0, 0, 13, 102, 57, 34, 1, 22, 76, 12, 127, 78]"
P3HT,NAI-FN-NAI(BO),-5.057777777777777,-2.989444444444445,-6.07,-3.96,1.0,CB,20.0,_,25.0,3.8,3.93,0.9,9.3,47.0,"['[8*]CCCCCC', '[14*]c1sc(C)cc1[16*]', '[14*]c1cc([16*])c(C)s1', '[14*]c1cc([16*])c([14*])s1']","['[4*]CC(CCCC)CCCCCC', '[11*]SN1C(=O)c2cccc3c([16*])ccc(c23)C1=O', '[14*]c1ccc([14*])s1', '[16*]c1ccc2c(c1)C(=O)c1cc([16*])ccc1-2']","['[8*]CCCCCC', '[14*]c1sc(C)cc1[16*]', '[14*]c1cc([16*])c(C)s1', '[14*]c1cc([16*])c([14*])s1', '.', '[4*]CC(CCCC)CCCCCC', '[11*]SN1C(=O)c2cccc3c([16*])ccc(c23)C1=O', '[14*]c1ccc([14*])s1', '[16*]c1ccc2c(c1)C(=O)c1cc([16*])ccc1-2']","[0, 0, 0, 0, 0, 0, 0, 0, 13, 102, 57, 34, 1, 33, 130, 7, 131]"
P3HT,NAI-FN-NAI(DT),-5.057777777777777,-2.989444444444445,-6.09,-3.97,1.0,CB,20.0,_,25.0,0.75,0.79,0.89,2.55,35.0,"['[8*]CCCCCC', '[14*]c1sc(C)cc1[16*]', '[14*]c1cc([16*])c(C)s1', '[14*]c1cc([16*])c([14*])s1']","['[8*]CC(CCCCCCCCCC)CCCCCCCCCCCC', '[10*]N1C(=O)c2cccc3c([16*])ccc(c23)C1=O', '[14*]c1ccc([14*])s1', '[16*]c1ccc2c(c1)C(=O)c1cc([16*])ccc1-2']","['[8*]CCCCCC', '[14*]c1sc(C)cc1[16*]', '[14*]c1cc([16*])c(C)s1', '[14*]c1cc([16*])c([14*])s1', '.', '[8*]CC(CCCCCCCCCC)CCCCCCCCCCCC', '[10*]N1C(=O)c2cccc3c([16*])ccc(c23)C1=O', '[14*]c1ccc([14*])s1', '[16*]c1ccc2c(c1)C(=O)c1cc([16*])ccc1-2']","[0, 0, 0, 0, 0, 0, 0, 0, 13, 102, 57, 34, 1, 132, 88, 7, 131]"
P3HT,PI-FN-PI(DT),-5.057777777777777,-2.989444444444445,-6.02,-3.92,1.0,CB,20.0,_,25.0,2.2,2.16,0.91,4.95,48.0,"['[8*]CCCCCC', '[14*]c1sc(C)cc1[16*]', '[14*]c1cc([16*])c(C)s1', '[14*]c1cc([16*])c([14*])s1']","['[8*]CC(CCCCCCCCCC)CCCCCCCCCCCC', '[10*]N1C(=O)c2ccc([16*])cc2C1=O', '[14*]c1ccc([14*])s1', '[16*]c1ccc2c(c1)C(=O)c1cc([16*])ccc1-2']","['[8*]CCCCCC', '[14*]c1sc(C)cc1[16*]', '[14*]c1cc([16*])c(C)s1', '[14*]c1cc([16*])c([14*])s1', '.', '[8*]CC(CCCCCCCCCC)CCCCCCCCCCCC', '[10*]N1C(=O)c2ccc([16*])cc2C1=O', '[14*]c1ccc([14*])s1', '[16*]c1ccc2c(c1)C(=O)c1cc([16*])ccc1-2']","[0, 0, 0, 0, 0, 0, 0, 0, 13, 102, 57, 34, 1, 132, 133, 7, 131]"
PTzBI,ITIC,-5.34,-3.46,-5.574146341463415,-3.915,1.0,CB,20.0,DBE,130.0,10.24,10.24,0.87,18.29,64.34,"['[8*]CCCCCCCC', '[8*]CC(CC)CCCC', '[14*]c1ccc([14*])s1', '[14*]c1ccc(C)s1', '[9*]n1nc2c([16*])c3c(c([16*])c2n1)C(=O)N([10*])C3=O', '[14*]c1cc2c([16*])c3sc(C)cc3c([16*])c2s1']","['[7*]C(C#N)C#N', '[7*]C1C(=O)c2ccccc2C1[7*]', '[7*]C[8*]', '[8*]CCCCCC', '[14*]c1cc2sc3c(c2s1)C(c1ccc([16*])cc1)(c1ccc([16*])cc1)c1cc2c(cc1-3)C(c1ccc([16*])cc1)(c1ccc([16*])cc1)c1c-2sc2cc([14*])sc12']","['[8*]CCCCCCCC', '[8*]CC(CC)CCCC', '[14*]c1ccc([14*])s1', '[14*]c1ccc(C)s1', '[9*]n1nc2c([16*])c3c(c([16*])c2n1)C(=O)N([10*])C3=O', '[14*]c1cc2c([16*])c3sc(C)cc3c([16*])c2s1', '.', '[7*]C(C#N)C#N', '[7*]C1C(=O)c2ccccc2C1[7*]', '[7*]C[8*]', '[8*]CCCCCC', '[14*]c1cc2sc3c(c2s1)C(c1ccc([16*])cc1)(c1ccc([16*])cc1)c1cc2c(cc1-3)C(c1ccc([16*])cc1)(c1ccc([16*])cc1)c1c-2sc2cc([14*])sc12']","[0, 0, 0, 0, 0, 21, 5, 7, 6, 134, 9, 1, 10, 11, 12, 13, 15]"
P3HT,NAI-FN-NAI(HD),-5.057777777777777,-2.989444444444445,-6.06,-3.98,1.0,CB,20.0,_,25.0,2.8,2.86,0.88,7.55,43.0,"['[8*]CCCCCC', '[14*]c1sc(C)cc1[16*]', '[14*]c1cc([16*])c(C)s1', '[14*]c1cc([16*])c([14*])s1']","['[8*]CC(CCCCCC)CCCCCCCC', '[10*]N1C(=O)c2cccc3c([16*])ccc(c23)C1=O', '[14*]c1ccc([14*])s1', '[16*]c1ccc2c(c1)C(=O)c1cc([16*])ccc1-2']","['[8*]CCCCCC', '[14*]c1sc(C)cc1[16*]', '[14*]c1cc([16*])c(C)s1', '[14*]c1cc([16*])c([14*])s1', '.', '[8*]CC(CCCCCC)CCCCCCCC', '[10*]N1C(=O)c2cccc3c([16*])ccc(c23)C1=O', '[14*]c1ccc([14*])s1', '[16*]c1ccc2c(c1)C(=O)c1cc([16*])ccc1-2']","[0, 0, 0, 0, 0, 0, 0, 0, 13, 102, 57, 34, 1, 17, 88, 7, 131]"
P3HT,NAI-FCN-NAI(BO),-5.057777777777777,-2.989444444444445,-6.14,-4.21,1.0,CB,20.0,_,25.0,0.8,0.74,0.58,3.25,39.0,"['[8*]CCCCCC', '[14*]c1sc(C)cc1[16*]', '[14*]c1cc([16*])c(C)s1', '[14*]c1cc([16*])c([14*])s1']","['[4*]CC(CCCC)CCCCCC', '[7*]C(C#N)C#N', '[11*]SN1C(=O)c2cccc3c([16*])ccc(c23)C1=O', '[14*]c1ccc([14*])s1', '[7*]C1c2cc([16*])ccc2-c2ccc([16*])cc21']","['[8*]CCCCCC', '[14*]c1sc(C)cc1[16*]', '[14*]c1cc([16*])c(C)s1', '[14*]c1cc([16*])c([14*])s1', '.', '[4*]CC(CCCC)CCCCCC', '[7*]C(C#N)C#N', '[11*]SN1C(=O)c2cccc3c([16*])ccc(c23)C1=O', '[14*]c1ccc([14*])s1', '[7*]C1c2cc([16*])ccc2-c2ccc([16*])cc21']","[0, 0, 0, 0, 0, 0, 0, 13, 102, 57, 34, 1, 33, 10, 130, 7, 135]"
FTAZ,INIC,-5.43,-3.3200000000000003,-5.45,-3.88,0.667,CF,12.5,DIO,25.0,7.7,7.49,0.957,13.51,57.9,"['[4*]CC(CCCC)CCCCCC', '[11*]S[11*]', '[14*]c1cc2c([16*])c3sc(C)cc3c([16*])c2s1', '[14*]c1ccc(C)s1', '[14*]c1ccc([14*])s1', '[11*]Sn1nc2c([16*])c(F)c(F)c([16*])c2n1']","['[7*]C(C#N)C#N', '[7*]C1C(=O)c2ccccc2C1[7*]', '[7*]C[8*]', '[8*]CCCCCC', '[14*]c1cc2sc3c4c(sc3c2s1)-c1cc2c(cc1C4(c1ccc([16*])cc1)c1ccc([16*])cc1)-c1sc3c(sc4cc([14*])sc43)c1C2(c1ccc([16*])cc1)c1ccc([16*])cc1']","['[4*]CC(CCCC)CCCCCC', '[11*]S[11*]', '[14*]c1cc2c([16*])c3sc(C)cc3c([16*])c2s1', '[14*]c1ccc(C)s1', '[14*]c1ccc([14*])s1', '[11*]Sn1nc2c([16*])c(F)c(F)c([16*])c2n1', '.', '[7*]C(C#N)C#N', '[7*]C1C(=O)c2ccccc2C1[7*]', '[7*]C[8*]', '[8*]CCCCCC', '[14*]c1cc2sc3c4c(sc3c2s1)-c1cc2c(cc1C4(c1ccc([16*])cc1)c1ccc([16*])cc1)-c1sc3c(sc4cc([14*])sc43)c1C2(c1ccc([16*])cc1)c1ccc([16*])cc1']","[0, 0, 0, 0, 0, 33, 25, 9, 6, 7, 64, 1, 10, 11, 12, 13, 136]"
FTAZ,INIC2,-5.43,-3.3200000000000003,-5.52,-3.98,0.667,CF,12.5,DIO,25.0,10.8,10.59,0.903,17.56,66.8,"['[4*]CC(CCCC)CCCCCC', '[11*]S[11*]', '[14*]c1cc2c([16*])c3sc(C)cc3c([16*])c2s1', '[14*]c1ccc(C)s1', '[14*]c1ccc([14*])s1', '[11*]Sn1nc2c([16*])c(F)c(F)c([16*])c2n1']","['[7*]C(C#N)C#N', '[7*]C1C(=O)c2ccc(F)cc2C1[7*]', '[7*]C[8*]', '[8*]CCCCCC', '[14*]c1cc2sc3c4c(sc3c2s1)-c1cc2c(cc1C4(c1ccc([16*])cc1)c1ccc([16*])cc1)-c1sc3c(sc4cc([14*])sc43)c1C2(c1ccc([16*])cc1)c1ccc([16*])cc1']","['[4*]CC(CCCC)CCCCCC', '[11*]S[11*]', '[14*]c1cc2c([16*])c3sc(C)cc3c([16*])c2s1', '[14*]c1ccc(C)s1', '[14*]c1ccc([14*])s1', '[11*]Sn1nc2c([16*])c(F)c(F)c([16*])c2n1', '.', '[7*]C(C#N)C#N', '[7*]C1C(=O)c2ccc(F)cc2C1[7*]', '[7*]C[8*]', '[8*]CCCCCC', '[14*]c1cc2sc3c4c(sc3c2s1)-c1cc2c(cc1C4(c1ccc([16*])cc1)c1ccc([16*])cc1)-c1sc3c(sc4cc([14*])sc43)c1C2(c1ccc([16*])cc1)c1ccc([16*])cc1']","[0, 0, 0, 0, 0, 33, 25, 9, 6, 7, 64, 1, 10, 138, 12, 13, 136]"
FTAZ,INIC3,-5.43,-3.3200000000000003,-5.52,-4.02,0.667,CF,12.5,DIO,25.0,11.5,11.23,0.857,19.44,67.4,"['[4*]CC(CCCC)CCCCCC', '[11*]S[11*]', '[14*]c1cc2c([16*])c3sc(C)cc3c([16*])c2s1', '[14*]c1ccc(C)s1', '[14*]c1ccc([14*])s1', '[11*]Sn1nc2c([16*])c(F)c(F)c([16*])c2n1']","['[7*]C(C#N)C#N', '[7*]C1C(=O)c2cc(F)c(F)cc2C1[7*]', '[7*]C[8*]', '[8*]CCCCCC', '[14*]c1cc2sc3c4c(sc3c2s1)-c1cc2c(cc1C4(c1ccc([16*])cc1)c1ccc([16*])cc1)-c1sc3c(sc4cc([14*])sc43)c1C2(c1ccc([16*])cc1)c1ccc([16*])cc1']","['[4*]CC(CCCC)CCCCCC', '[11*]S[11*]', '[14*]c1cc2c([16*])c3sc(C)cc3c([16*])c2s1', '[14*]c1ccc(C)s1', '[14*]c1ccc([14*])s1', '[11*]Sn1nc2c([16*])c(F)c(F)c([16*])c2n1', '.', '[7*]C(C#N)C#N', '[7*]C1C(=O)c2cc(F)c(F)cc2C1[7*]', '[7*]C[8*]', '[8*]CCCCCC', '[14*]c1cc2sc3c4c(sc3c2s1)-c1cc2c(cc1C4(c1ccc([16*])cc1)c1ccc([16*])cc1)-c1sc3c(sc4cc([14*])sc43)c1C2(c1ccc([16*])cc1)c1ccc([16*])cc1']","[0, 0, 0, 0, 0, 33, 25, 9, 6, 7, 64, 1, 10, 42, 12, 13, 136]"
PTB7-Th,F6IC,-5.204782608695651,-3.5391891891891896,-5.66,-4.02,0.588,CF,10.0,DPE,25.0,7.1,7.07,0.611,18.07,64.0,"['[3*]O[3*]', '[4*]CC(CC)CCCC', '[1*]C([6*])=O', '[8*]CC(CC)CCCC', '[14*]c1sc2c([14*])sc(C)c2c1F', '[14*]c1ccc([14*])s1', '[14*]c1cc2c([16*])c3sc(C)cc3c([16*])c2s1']","['[7*]C(C#N)C#N', '[7*]C1C(=O)c2cc(F)c(F)cc2C1[7*]', '[7*]C[8*]', '[8*]CCCCCC', '[14*]c1cc2c(s1)-c1sc3c4c(sc3c1C2(c1ccc([16*])cc1)c1ccc([16*])cc1)-c1sc([14*])cc1C4(c1ccc([16*])cc1)c1ccc([16*])cc1']","['[3*]O[3*]', '[4*]CC(CC)CCCC', '[1*]C([6*])=O', '[8*]CC(CC)CCCC', '[14*]c1sc2c([14*])sc(C)c2c1F', '[14*]c1ccc([14*])s1', '[14*]c1cc2c([16*])c3sc(C)cc3c([16*])c2s1', '.', '[7*]C(C#N)C#N', '[7*]C1C(=O)c2cc(F)c(F)cc2C1[7*]', '[7*]C[8*]', '[8*]CCCCCC', '[14*]c1cc2c(s1)-c1sc3c4c(sc3c1C2(c1ccc([16*])cc1)c1ccc([16*])cc1)-c1sc([14*])cc1C4(c1ccc([16*])cc1)c1ccc([16*])cc1']","[0, 0, 0, 0, 2, 3, 4, 5, 35, 7, 9, 1, 10, 42, 12, 13, 101]"
PTB7-Th,F8IC,-5.204782608695651,-3.5391891891891896,-5.43,-4.0,0.588,CF,10.0,DPE,25.0,10.9,10.87,0.64,25.12,67.6,"['[3*]O[3*]', '[4*]CC(CC)CCCC', '[1*]C([6*])=O', '[8*]CC(CC)CCCC', '[14*]c1sc2c([14*])sc(C)c2c1F', '[14*]c1ccc([14*])s1', '[14*]c1cc2c([16*])c3sc(C)cc3c([16*])c2s1']","['[7*]C(C#N)C#N', '[7*]C1C(=O)c2cc(F)c(F)cc2C1[7*]', '[7*]C[8*]', '[8*]CCCCCC', '[14*]c1cc2sc3c(c2s1)C(c1ccc([16*])cc1)(c1ccc([16*])cc1)c1c-3sc2c3c(sc12)-c1sc2cc([14*])sc2c1C3(c1ccc([16*])cc1)c1ccc([16*])cc1']","['[3*]O[3*]', '[4*]CC(CC)CCCC', '[1*]C([6*])=O', '[8*]CC(CC)CCCC', '[14*]c1sc2c([14*])sc(C)c2c1F', '[14*]c1ccc([14*])s1', '[14*]c1cc2c([16*])c3sc(C)cc3c([16*])c2s1', '.', '[7*]C(C#N)C#N', '[7*]C1C(=O)c2cc(F)c(F)cc2C1[7*]', '[7*]C[8*]', '[8*]CCCCCC', '[14*]c1cc2sc3c(c2s1)C(c1ccc([16*])cc1)(c1ccc([16*])cc1)c1c-3sc2c3c(sc12)-c1sc2cc([14*])sc2c1C3(c1ccc([16*])cc1)c1ccc([16*])cc1']","[0, 0, 0, 0, 2, 3, 4, 5, 35, 7, 9, 1, 10, 42, 12, 13, 14]"
PTB7-Th,F10IC,-5.204782608695651,-3.5391891891891896,-5.26,-3.96,0.588,CF,10.0,DPE,25.0,10.2,10.16,0.73,20.83,66.8,"['[3*]O[3*]', '[4*]CC(CC)CCCC', '[1*]C([6*])=O', '[8*]CC(CC)CCCC', '[14*]c1sc2c([14*])sc(C)c2c1F', '[14*]c1ccc([14*])s1', '[14*]c1cc2c([16*])c3sc(C)cc3c([16*])c2s1']","['[7*]C(C#N)C#N', '[7*]C1C(=O)c2cc(F)c(F)cc2C1[7*]', '[7*]C[8*]', '[8*]CCCCCC', '[14*]c1cc2sc3c4c(sc3c2s1)-c1sc2c3c(sc2c1C4(c1ccc([16*])cc1)c1ccc([16*])cc1)-c1sc2c(sc4cc([14*])sc42)c1C3(c1ccc([16*])cc1)c1ccc([16*])cc1']","['[3*]O[3*]', '[4*]CC(CC)CCCC', '[1*]C([6*])=O', '[8*]CC(CC)CCCC', '[14*]c1sc2c([14*])sc(C)c2c1F', '[14*]c1ccc([14*])s1', '[14*]c1cc2c([16*])c3sc(C)cc3c([16*])c2s1', '.', '[7*]C(C#N)C#N', '[7*]C1C(=O)c2cc(F)c(F)cc2C1[7*]', '[7*]C[8*]', '[8*]CCCCCC', '[14*]c1cc2sc3c4c(sc3c2s1)-c1sc2c3c(sc2c1C4(c1ccc([16*])cc1)c1ccc([16*])cc1)-c1sc2c(sc4cc([14*])sc42)c1C3(c1ccc([16*])cc1)c1ccc([16*])cc1']","[0, 0, 0, 0, 2, 3, 4, 5, 35, 7, 9, 1, 10, 42, 12, 13, 139]"
PBDTTT-C-T,DC-IDT2T,-5.128,-3.268,-5.43,-3.85,1.2,o-DCB:CF (6.667:1),20.0,_,25.0,3.93,3.92,0.9,8.33,52.3,"['[6*]C(=O)CC(CC)CCCC', '[8*]CC(CC)CCCC', '[14*]c1cc2c(C)sc([14*])c2s1', '[14*]c1ccc([14*])s1', '[14*]c1cc2c([16*])c3sc(C)cc3c([16*])c2s1']","['[7*]C(C#N)C#N', '[7*]C1C(=O)c2ccccc2C1[7*]', '[7*]C[8*]', '[8*]CCCCCC', '[14*]c1ccc([14*])s1', '[14*]c1cc2c(s1)-c1cc3c(cc1C2(c1ccc([16*])cc1)c1ccc([16*])cc1)-c1sc([14*])cc1C3(c1ccc([16*])cc1)c1ccc([16*])cc1']","['[6*]C(=O)CC(CC)CCCC', '[8*]CC(CC)CCCC', '[14*]c1cc2c(C)sc([14*])c2s1', '[14*]c1ccc([14*])s1', '[14*]c1cc2c([16*])c3sc(C)cc3c([16*])c2s1', '.', '[7*]C(C#N)C#N', '[7*]C1C(=O)c2ccccc2C1[7*]', '[7*]C[8*]', '[8*]CCCCCC', '[14*]c1ccc([14*])s1', '[14*]c1cc2c(s1)-c1cc3c(cc1C2(c1ccc([16*])cc1)c1ccc([16*])cc1)-c1sc([14*])cc1C3(c1ccc([16*])cc1)c1ccc([16*])cc1']","[0, 0, 0, 0, 0, 98, 5, 96, 7, 9, 1, 10, 11, 12, 13, 7, 38]"