Donor,Acceptor,HOMO_D_eV,LUMO_D_eV,HOMO_A_eV,LUMO_A_eV,D_A_ratio_m_m,solvent,total_solids_conc_mg_mL,solvent_additive,annealing_temperature,PCE_percent,calc_PCE_percent,Voc_V,FF_percent,Donor_BRICS,Acceptor_BRICS,DA_pair_BRICS,DA_tokenized_BRICS
PTB7-Th,IDT-N,-5.204782608695651,-3.5391891891891896,-5.73,-4.08,1.0,CF,10.0,_,100.0,5.5,5.48,0.73,57.7,"[<rdkit.Chem.rdchem.Mol object at 0x7f5838d9ac00>, <rdkit.Chem.rdchem.Mol object at 0x7f5838d9bb50>, <rdkit.Chem.rdchem.Mol object at 0x7f5838d9be60>, <rdkit.Chem.rdchem.Mol object at 0x7f5838d9ba00>, <rdkit.Chem.rdchem.Mol object at 0x7f5838d9bc30>, <rdkit.Chem.rdchem.Mol object at 0x7f5838d9b4c0>, <rdkit.Chem.rdchem.Mol object at 0x7f5838d9af10>]","[<rdkit.Chem.rdchem.Mol object at 0x7f5838d9ba70>, <rdkit.Chem.rdchem.Mol object at 0x7f5838d9b8b0>, <rdkit.Chem.rdchem.Mol object at 0x7f5838d9bed0>, <rdkit.Chem.rdchem.Mol object at 0x7f5838d9b6f0>, <rdkit.Chem.rdchem.Mol object at 0x7f5838d9b370>]","[<rdkit.Chem.rdchem.Mol object at 0x7f5838d9ac00>, <rdkit.Chem.rdchem.Mol object at 0x7f5838d9bb50>, <rdkit.Chem.rdchem.Mol object at 0x7f5838d9be60>, <rdkit.Chem.rdchem.Mol object at 0x7f5838d9ba00>, <rdkit.Chem.rdchem.Mol object at 0x7f5838d9bc30>, <rdkit.Chem.rdchem.Mol object at 0x7f5838d9b4c0>, <rdkit.Chem.rdchem.Mol object at 0x7f5838d9af10>, '.', <rdkit.Chem.rdchem.Mol object at 0x7f5838d9ba70>, <rdkit.Chem.rdchem.Mol object at 0x7f5838d9b8b0>, <rdkit.Chem.rdchem.Mol object at 0x7f5838d9bed0>, <rdkit.Chem.rdchem.Mol object at 0x7f5838d9b6f0>, <rdkit.Chem.rdchem.Mol object at 0x7f5838d9b370>]","[0, 0, 0, 0, 2195, 2196, 2197, 2198, 2199, 2200, 2201, 1, 2202, 2203, 2204, 2205, 2206]"
PBDB-T,IDT-N,-5.297714285714285,-3.4170000000000003,-5.73,-4.08,1.0,CF,10.0,CN,100.0,8.99,9.02,0.79,71.91,"[<rdkit.Chem.rdchem.Mol object at 0x7f5838d9b140>, <rdkit.Chem.rdchem.Mol object at 0x7f5838d9b0d0>, <rdkit.Chem.rdchem.Mol object at 0x7f5838d9a2d0>, <rdkit.Chem.rdchem.Mol object at 0x7f5838da58c0>, <rdkit.Chem.rdchem.Mol object at 0x7f5838da4120>]","[<rdkit.Chem.rdchem.Mol object at 0x7f5838d9b990>, <rdkit.Chem.rdchem.Mol object at 0x7f5838d9aa40>, <rdkit.Chem.rdchem.Mol object at 0x7f5838d9a3b0>, <rdkit.Chem.rdchem.Mol object at 0x7f5838d99cb0>, <rdkit.Chem.rdchem.Mol object at 0x7f5838da5930>]","[<rdkit.Chem.rdchem.Mol object at 0x7f5838d9b140>, <rdkit.Chem.rdchem.Mol object at 0x7f5838d9b0d0>, <rdkit.Chem.rdchem.Mol object at 0x7f5838d9a2d0>, <rdkit.Chem.rdchem.Mol object at 0x7f5838da58c0>, <rdkit.Chem.rdchem.Mol object at 0x7f5838da4120>, '.', <rdkit.Chem.rdchem.Mol object at 0x7f5838d9b990>, <rdkit.Chem.rdchem.Mol object at 0x7f5838d9aa40>, <rdkit.Chem.rdchem.Mol object at 0x7f5838d9a3b0>, <rdkit.Chem.rdchem.Mol object at 0x7f5838d99cb0>, <rdkit.Chem.rdchem.Mol object at 0x7f5838da5930>]","[0, 0, 0, 0, 0, 0, 2221, 2222, 2223, 2224, 2225, 1, 2226, 2227, 2228, 2229, 2230]"
PBDB-T,IDT-T-N,-5.297714285714285,-3.4170000000000003,-5.58,-4.06,1.0,CF,10.0,CN,100.0,7.4,7.4,0.94,56.11,"[<rdkit.Chem.rdchem.Mol object at 0x7f5838d9aab0>, <rdkit.Chem.rdchem.Mol object at 0x7f5838da5770>, <rdkit.Chem.rdchem.Mol object at 0x7f5838da5460>, <rdkit.Chem.rdchem.Mol object at 0x7f5838da5c40>, <rdkit.Chem.rdchem.Mol object at 0x7f5838da4c80>]","[<rdkit.Chem.rdchem.Mol object at 0x7f5838d99a10>, <rdkit.Chem.rdchem.Mol object at 0x7f5838da4b30>, <rdkit.Chem.rdchem.Mol object at 0x7f5838d9bae0>, <rdkit.Chem.rdchem.Mol object at 0x7f5838d9adc0>, <rdkit.Chem.rdchem.Mol object at 0x7f5838d9b680>, <rdkit.Chem.rdchem.Mol object at 0x7f5838da67a0>, <rdkit.Chem.rdchem.Mol object at 0x7f5838d9ad50>]","[<rdkit.Chem.rdchem.Mol object at 0x7f5838d9aab0>, <rdkit.Chem.rdchem.Mol object at 0x7f5838da5770>, <rdkit.Chem.rdchem.Mol object at 0x7f5838da5460>, <rdkit.Chem.rdchem.Mol object at 0x7f5838da5c40>, <rdkit.Chem.rdchem.Mol object at 0x7f5838da4c80>, '.', <rdkit.Chem.rdchem.Mol object at 0x7f5838d99a10>, <rdkit.Chem.rdchem.Mol object at 0x7f5838da4b30>, <rdkit.Chem.rdchem.Mol object at 0x7f5838d9bae0>, <rdkit.Chem.rdchem.Mol object at 0x7f5838d9adc0>, <rdkit.Chem.rdchem.Mol object at 0x7f5838d9b680>, <rdkit.Chem.rdchem.Mol object at 0x7f5838da67a0>, <rdkit.Chem.rdchem.Mol object at 0x7f5838d9ad50>]","[0, 0, 0, 0, 2231, 2232, 2233, 2234, 2235, 1, 2236, 2237, 2238, 2239, 2240, 2241, 2242]"
PTB7-Th,p-IDTIDT-IC,-5.204782608695651,-3.5391891891891896,-5.42,-3.82,0.667,o-DCB,25.0,_,150.0,6.48,6.47,0.94,47.5,"[<rdkit.Chem.rdchem.Mol object at 0x7f5838d9bca0>, <rdkit.Chem.rdchem.Mol object at 0x7f5838da4c10>, <rdkit.Chem.rdchem.Mol object at 0x7f5838da61f0>, <rdkit.Chem.rdchem.Mol object at 0x7f5838da59a0>, <rdkit.Chem.rdchem.Mol object at 0x7f5838da57e0>, <rdkit.Chem.rdchem.Mol object at 0x7f5838da6420>, <rdkit.Chem.rdchem.Mol object at 0x7f5838da54d0>]","[<rdkit.Chem.rdchem.Mol object at 0x7f5838da4dd0>, <rdkit.Chem.rdchem.Mol object at 0x7f5838da6110>, <rdkit.Chem.rdchem.Mol object at 0x7f5838da5b60>, <rdkit.Chem.rdchem.Mol object at 0x7f5838da6180>, <rdkit.Chem.rdchem.Mol object at 0x7f5838db5c40>]","[<rdkit.Chem.rdchem.Mol object at 0x7f5838d9bca0>, <rdkit.Chem.rdchem.Mol object at 0x7f5838da4c10>, <rdkit.Chem.rdchem.Mol object at 0x7f5838da61f0>, <rdkit.Chem.rdchem.Mol object at 0x7f5838da59a0>, <rdkit.Chem.rdchem.Mol object at 0x7f5838da57e0>, <rdkit.Chem.rdchem.Mol object at 0x7f5838da6420>, <rdkit.Chem.rdchem.Mol object at 0x7f5838da54d0>, '.', <rdkit.Chem.rdchem.Mol object at 0x7f5838da4dd0>, <rdkit.Chem.rdchem.Mol object at 0x7f5838da6110>, <rdkit.Chem.rdchem.Mol object at 0x7f5838da5b60>, <rdkit.Chem.rdchem.Mol object at 0x7f5838da6180>, <rdkit.Chem.rdchem.Mol object at 0x7f5838db5c40>]","[0, 0, 0, 0, 2265, 2266, 2267, 2268, 2269, 2270, 2271, 1, 2272, 2273, 2274, 2275, 2276]"
PBDB-TF,IDT-C6,-5.497142857142857,-3.6428571428571423,-5.59,-3.35,1.0,CF,16.0,DIO,100.0,12.5,12.43,0.96,74.0,"[<rdkit.Chem.rdchem.Mol object at 0x7f5838da76f0>, <rdkit.Chem.rdchem.Mol object at 0x7f5838da7b50>, <rdkit.Chem.rdchem.Mol object at 0x7f5838da7610>, <rdkit.Chem.rdchem.Mol object at 0x7f5838da65e0>, <rdkit.Chem.rdchem.Mol object at 0x7f5838da4040>, <rdkit.Chem.rdchem.Mol object at 0x7f5838da44a0>]","[<rdkit.Chem.rdchem.Mol object at 0x7f5838da69d0>, <rdkit.Chem.rdchem.Mol object at 0x7f5838da7450>, <rdkit.Chem.rdchem.Mol object at 0x7f5838da7140>, <rdkit.Chem.rdchem.Mol object at 0x7f5838da4200>]","[<rdkit.Chem.rdchem.Mol object at 0x7f5838da76f0>, <rdkit.Chem.rdchem.Mol object at 0x7f5838da7b50>, <rdkit.Chem.rdchem.Mol object at 0x7f5838da7610>, <rdkit.Chem.rdchem.Mol object at 0x7f5838da65e0>, <rdkit.Chem.rdchem.Mol object at 0x7f5838da4040>, <rdkit.Chem.rdchem.Mol object at 0x7f5838da44a0>, '.', <rdkit.Chem.rdchem.Mol object at 0x7f5838da69d0>, <rdkit.Chem.rdchem.Mol object at 0x7f5838da7450>, <rdkit.Chem.rdchem.Mol object at 0x7f5838da7140>, <rdkit.Chem.rdchem.Mol object at 0x7f5838da4200>]","[0, 0, 0, 0, 0, 0, 2277, 2278, 2279, 2280, 2281, 2282, 1, 2283, 2284, 2285, 2286]"
PBDB-TF,IDT-PhC6,-5.497142857142857,-3.6428571428571423,-5.56,-3.32,1.0,CF,16.0,DIO,100.0,5.6,5.59,1.0,43.0,"[<rdkit.Chem.rdchem.Mol object at 0x7f5838da6ea0>, <rdkit.Chem.rdchem.Mol object at 0x7f5838da7920>, <rdkit.Chem.rdchem.Mol object at 0x7f5838da7bc0>, <rdkit.Chem.rdchem.Mol object at 0x7f5838da6810>, <rdkit.Chem.rdchem.Mol object at 0x7f5838da7760>, <rdkit.Chem.rdchem.Mol object at 0x7f5838da7220>]","[<rdkit.Chem.rdchem.Mol object at 0x7f5838da5380>, <rdkit.Chem.rdchem.Mol object at 0x7f5838da7c30>, <rdkit.Chem.rdchem.Mol object at 0x7f5838da5af0>, <rdkit.Chem.rdchem.Mol object at 0x7f5838da7f40>, <rdkit.Chem.rdchem.Mol object at 0x7f5838da6a40>]","[<rdkit.Chem.rdchem.Mol object at 0x7f5838da6ea0>, <rdkit.Chem.rdchem.Mol object at 0x7f5838da7920>, <rdkit.Chem.rdchem.Mol object at 0x7f5838da7bc0>, <rdkit.Chem.rdchem.Mol object at 0x7f5838da6810>, <rdkit.Chem.rdchem.Mol object at 0x7f5838da7760>, <rdkit.Chem.rdchem.Mol object at 0x7f5838da7220>, '.', <rdkit.Chem.rdchem.Mol object at 0x7f5838da5380>, <rdkit.Chem.rdchem.Mol object at 0x7f5838da7c30>, <rdkit.Chem.rdchem.Mol object at 0x7f5838da5af0>, <rdkit.Chem.rdchem.Mol object at 0x7f5838da7f40>, <rdkit.Chem.rdchem.Mol object at 0x7f5838da6a40>]","[0, 0, 0, 0, 0, 2287, 2288, 2289, 2290, 2291, 2292, 1, 2293, 2294, 2295, 2296, 2297]"
PBDB-T,FDICTF,-5.297714285714285,-3.4170000000000003,-5.43,-3.71,1.25,CB,19.8,_,25.0,11.2,10.99,0.93,72.5,"[<rdkit.Chem.rdchem.Mol object at 0x7f5838d9a730>, <rdkit.Chem.rdchem.Mol object at 0x7f5838da4430>, <rdkit.Chem.rdchem.Mol object at 0x7f5838da5ee0>, <rdkit.Chem.rdchem.Mol object at 0x7f5838da50e0>, <rdkit.Chem.rdchem.Mol object at 0x7f5838da5bd0>]","[<rdkit.Chem.rdchem.Mol object at 0x7f5838da5070>, <rdkit.Chem.rdchem.Mol object at 0x7f5838da4820>, <rdkit.Chem.rdchem.Mol object at 0x7f5838da66c0>, <rdkit.Chem.rdchem.Mol object at 0x7f5838da40b0>]","[<rdkit.Chem.rdchem.Mol object at 0x7f5838d9a730>, <rdkit.Chem.rdchem.Mol object at 0x7f5838da4430>, <rdkit.Chem.rdchem.Mol object at 0x7f5838da5ee0>, <rdkit.Chem.rdchem.Mol object at 0x7f5838da50e0>, <rdkit.Chem.rdchem.Mol object at 0x7f5838da5bd0>, '.', <rdkit.Chem.rdchem.Mol object at 0x7f5838da5070>, <rdkit.Chem.rdchem.Mol object at 0x7f5838da4820>, <rdkit.Chem.rdchem.Mol object at 0x7f5838da66c0>, <rdkit.Chem.rdchem.Mol object at 0x7f5838da40b0>]","[0, 0, 0, 0, 0, 0, 0, 2330, 2331, 2332, 2333, 2334, 1, 2335, 2336, 2337, 2338]"
PBDB-T,DTNIC6,-5.297714285714285,-3.4170000000000003,-5.87,-3.92,1.0,CB,18.0,_,25.0,3.39,3.38,0.96,45.63,"[<rdkit.Chem.rdchem.Mol object at 0x7f5838da4190>, <rdkit.Chem.rdchem.Mol object at 0x7f5838da7a00>, <rdkit.Chem.rdchem.Mol object at 0x7f5838da6b90>, <rdkit.Chem.rdchem.Mol object at 0x7f5838da6b20>, <rdkit.Chem.rdchem.Mol object at 0x7f5838db5f50>]","[<rdkit.Chem.rdchem.Mol object at 0x7f5838da4f20>, <rdkit.Chem.rdchem.Mol object at 0x7f5838da62d0>, <rdkit.Chem.rdchem.Mol object at 0x7f5838da7840>, <rdkit.Chem.rdchem.Mol object at 0x7f5838da7e60>]","[<rdkit.Chem.rdchem.Mol object at 0x7f5838da4190>, <rdkit.Chem.rdchem.Mol object at 0x7f5838da7a00>, <rdkit.Chem.rdchem.Mol object at 0x7f5838da6b90>, <rdkit.Chem.rdchem.Mol object at 0x7f5838da6b20>, <rdkit.Chem.rdchem.Mol object at 0x7f5838db5f50>, '.', <rdkit.Chem.rdchem.Mol object at 0x7f5838da4f20>, <rdkit.Chem.rdchem.Mol object at 0x7f5838da62d0>, <rdkit.Chem.rdchem.Mol object at 0x7f5838da7840>, <rdkit.Chem.rdchem.Mol object at 0x7f5838da7e60>]","[0, 0, 0, 0, 0, 0, 0, 2351, 2352, 2353, 2354, 2355, 1, 2356, 2357, 2358, 2359]"
PBDB-T,DTNIC8,-5.297714285714285,-3.4170000000000003,-5.91,-3.93,1.0,CB,18.0,_,25.0,9.03,9.03,0.96,72.84,"[<rdkit.Chem.rdchem.Mol object at 0x7f5838da7d80>, <rdkit.Chem.rdchem.Mol object at 0x7f5838da74c0>, <rdkit.Chem.rdchem.Mol object at 0x7f5838da4510>, <rdkit.Chem.rdchem.Mol object at 0x7f5838db5770>, <rdkit.Chem.rdchem.Mol object at 0x7f5838db5230>]","[<rdkit.Chem.rdchem.Mol object at 0x7f5838da7680>, <rdkit.Chem.rdchem.Mol object at 0x7f5838da4890>, <rdkit.Chem.rdchem.Mol object at 0x7f5838da6730>, <rdkit.Chem.rdchem.Mol object at 0x7f5838da7ed0>]","[<rdkit.Chem.rdchem.Mol object at 0x7f5838da7d80>, <rdkit.Chem.rdchem.Mol object at 0x7f5838da74c0>, <rdkit.Chem.rdchem.Mol object at 0x7f5838da4510>, <rdkit.Chem.rdchem.Mol object at 0x7f5838db5770>, <rdkit.Chem.rdchem.Mol object at 0x7f5838db5230>, '.', <rdkit.Chem.rdchem.Mol object at 0x7f5838da7680>, <rdkit.Chem.rdchem.Mol object at 0x7f5838da4890>, <rdkit.Chem.rdchem.Mol object at 0x7f5838da6730>, <rdkit.Chem.rdchem.Mol object at 0x7f5838da7ed0>]","[0, 0, 0, 0, 0, 0, 0, 2360, 2361, 2362, 2363, 2364, 1, 2365, 2366, 2367, 2368]"
PTB7-Th,DTCC-IC,-5.204782608695651,-3.5391891891891896,-5.5,-3.87,1.0,CF,13.0,CN,100.0,6.0,6.0,0.95,56.2,"[<rdkit.Chem.rdchem.Mol object at 0x7f5838da55b0>, <rdkit.Chem.rdchem.Mol object at 0x7f5838da4350>, <rdkit.Chem.rdchem.Mol object at 0x7f5838da6960>, <rdkit.Chem.rdchem.Mol object at 0x7f5838da6260>, <rdkit.Chem.rdchem.Mol object at 0x7f5838db5930>, <rdkit.Chem.rdchem.Mol object at 0x7f5838da42e0>, <rdkit.Chem.rdchem.Mol object at 0x7f5838db4cf0>]","[<rdkit.Chem.rdchem.Mol object at 0x7f5838da4900>, <rdkit.Chem.rdchem.Mol object at 0x7f5838da6e30>, <rdkit.Chem.rdchem.Mol object at 0x7f5838db5e00>, <rdkit.Chem.rdchem.Mol object at 0x7f5838da6570>, <rdkit.Chem.rdchem.Mol object at 0x7f5838db5bd0>, <rdkit.Chem.rdchem.Mol object at 0x7f5838db5070>, <rdkit.Chem.rdchem.Mol object at 0x7f5838db4e40>]","[<rdkit.Chem.rdchem.Mol object at 0x7f5838da55b0>, <rdkit.Chem.rdchem.Mol object at 0x7f5838da4350>, <rdkit.Chem.rdchem.Mol object at 0x7f5838da6960>, <rdkit.Chem.rdchem.Mol object at 0x7f5838da6260>, <rdkit.Chem.rdchem.Mol object at 0x7f5838db5930>, <rdkit.Chem.rdchem.Mol object at 0x7f5838da42e0>, <rdkit.Chem.rdchem.Mol object at 0x7f5838db4cf0>, '.', <rdkit.Chem.rdchem.Mol object at 0x7f5838da4900>, <rdkit.Chem.rdchem.Mol object at 0x7f5838da6e30>, <rdkit.Chem.rdchem.Mol object at 0x7f5838db5e00>, <rdkit.Chem.rdchem.Mol object at 0x7f5838da6570>, <rdkit.Chem.rdchem.Mol object at 0x7f5838db5bd0>, <rdkit.Chem.rdchem.Mol object at 0x7f5838db5070>, <rdkit.Chem.rdchem.Mol object at 0x7f5838db4e40>]","[0, 0, 2369, 2370, 2371, 2372, 2373, 2374, 2375, 1, 2376, 2377, 2378, 2379, 2380, 2381, 2382]"
P1_BDT-TBT,DCI-2,-5.1,-3.48,-5.24,-4.05,0.5,CF,18.0,DIO,25.0,6.94,6.94,0.8,63.0,"[<rdkit.Chem.rdchem.Mol object at 0x7f5838db7990>, <rdkit.Chem.rdchem.Mol object at 0x7f5838db7ae0>, <rdkit.Chem.rdchem.Mol object at 0x7f5838db77d0>, <rdkit.Chem.rdchem.Mol object at 0x7f5838db73e0>, <rdkit.Chem.rdchem.Mol object at 0x7f5838db7530>, <rdkit.Chem.rdchem.Mol object at 0x7f5838db7140>]","[<rdkit.Chem.rdchem.Mol object at 0x7f5838db7300>, <rdkit.Chem.rdchem.Mol object at 0x7f5838db6dc0>, <rdkit.Chem.rdchem.Mol object at 0x7f5838db7220>, <rdkit.Chem.rdchem.Mol object at 0x7f5838db6ea0>, <rdkit.Chem.rdchem.Mol object at 0x7f5838db6f10>, <rdkit.Chem.rdchem.Mol object at 0x7f5838db7840>, <rdkit.Chem.rdchem.Mol object at 0x7f5838db7b50>]","[<rdkit.Chem.rdchem.Mol object at 0x7f5838db7990>, <rdkit.Chem.rdchem.Mol object at 0x7f5838db7ae0>, <rdkit.Chem.rdchem.Mol object at 0x7f5838db77d0>, <rdkit.Chem.rdchem.Mol object at 0x7f5838db73e0>, <rdkit.Chem.rdchem.Mol object at 0x7f5838db7530>, <rdkit.Chem.rdchem.Mol object at 0x7f5838db7140>, '.', <rdkit.Chem.rdchem.Mol object at 0x7f5838db7300>, <rdkit.Chem.rdchem.Mol object at 0x7f5838db6dc0>, <rdkit.Chem.rdchem.Mol object at 0x7f5838db7220>, <rdkit.Chem.rdchem.Mol object at 0x7f5838db6ea0>, <rdkit.Chem.rdchem.Mol object at 0x7f5838db6f10>, <rdkit.Chem.rdchem.Mol object at 0x7f5838db7840>, <rdkit.Chem.rdchem.Mol object at 0x7f5838db7b50>]","[0, 0, 0, 2417, 2418, 2419, 2420, 2421, 2422, 1, 2423, 2424, 2425, 2426, 2427, 2428, 2429]"
PBDTTT-C-T,DC-IDT2F,-5.128,-3.268,-5.44,-3.88,2.0,o-DCB,20.0,_,25.0,3.08,3.08,0.96,50.8,"[<rdkit.Chem.rdchem.Mol object at 0x7f5838da4970>, <rdkit.Chem.rdchem.Mol object at 0x7f5838db7760>, <rdkit.Chem.rdchem.Mol object at 0x7f5838db7680>, <rdkit.Chem.rdchem.Mol object at 0x7f5838db7610>, <rdkit.Chem.rdchem.Mol object at 0x7f5838db42e0>]","[<rdkit.Chem.rdchem.Mol object at 0x7f5838db74c0>, <rdkit.Chem.rdchem.Mol object at 0x7f5838db7ca0>, <rdkit.Chem.rdchem.Mol object at 0x7f5838db5a80>, <rdkit.Chem.rdchem.Mol object at 0x7f5838db5150>, <rdkit.Chem.rdchem.Mol object at 0x7f5838db6260>, <rdkit.Chem.rdchem.Mol object at 0x7f5838db4200>]","[<rdkit.Chem.rdchem.Mol object at 0x7f5838da4970>, <rdkit.Chem.rdchem.Mol object at 0x7f5838db7760>, <rdkit.Chem.rdchem.Mol object at 0x7f5838db7680>, <rdkit.Chem.rdchem.Mol object at 0x7f5838db7610>, <rdkit.Chem.rdchem.Mol object at 0x7f5838db42e0>, '.', <rdkit.Chem.rdchem.Mol object at 0x7f5838db74c0>, <rdkit.Chem.rdchem.Mol object at 0x7f5838db7ca0>, <rdkit.Chem.rdchem.Mol object at 0x7f5838db5a80>, <rdkit.Chem.rdchem.Mol object at 0x7f5838db5150>, <rdkit.Chem.rdchem.Mol object at 0x7f5838db6260>, <rdkit.Chem.rdchem.Mol object at 0x7f5838db4200>]","[0, 0, 0, 0, 0, 2430, 2431, 2432, 2433, 2434, 1, 2435, 2436, 2437, 2438, 2439, 2440]"
PTB7-Th,IM-IDT,-5.204782608695651,-3.5391891891891896,-5.44,-4.0,1.0,o-DCB,10.0,DPE,100.0,1.6,1.41,0.58,49.16,"[<rdkit.Chem.rdchem.Mol object at 0x7f5838db4430>, <rdkit.Chem.rdchem.Mol object at 0x7f5838db5540>, <rdkit.Chem.rdchem.Mol object at 0x7f5838db6490>, <rdkit.Chem.rdchem.Mol object at 0x7f5838db4350>, <rdkit.Chem.rdchem.Mol object at 0x7f5838db4890>, <rdkit.Chem.rdchem.Mol object at 0x7f5838db4b30>, <rdkit.Chem.rdchem.Mol object at 0x7f5838db4f90>]","[<rdkit.Chem.rdchem.Mol object at 0x7f5838db4040>, <rdkit.Chem.rdchem.Mol object at 0x7f5838db7c30>, <rdkit.Chem.rdchem.Mol object at 0x7f5838db7df0>, <rdkit.Chem.rdchem.Mol object at 0x7f5838db7370>]","[<rdkit.Chem.rdchem.Mol object at 0x7f5838db4430>, <rdkit.Chem.rdchem.Mol object at 0x7f5838db5540>, <rdkit.Chem.rdchem.Mol object at 0x7f5838db6490>, <rdkit.Chem.rdchem.Mol object at 0x7f5838db4350>, <rdkit.Chem.rdchem.Mol object at 0x7f5838db4890>, <rdkit.Chem.rdchem.Mol object at 0x7f5838db4b30>, <rdkit.Chem.rdchem.Mol object at 0x7f5838db4f90>, '.', <rdkit.Chem.rdchem.Mol object at 0x7f5838db4040>, <rdkit.Chem.rdchem.Mol object at 0x7f5838db7c30>, <rdkit.Chem.rdchem.Mol object at 0x7f5838db7df0>, <rdkit.Chem.rdchem.Mol object at 0x7f5838db7370>]","[0, 0, 0, 0, 0, 2441, 2442, 2443, 2444, 2445, 2446, 2447, 1, 2448, 2449, 2450, 2451]"
PTB7-Th,TIM-IDT,-5.204782608695651,-3.5391891891891896,-5.36,-4.01,1.0,o-DCB,10.0,_,25.0,1.63,1.44,0.6,45.53,"[<rdkit.Chem.rdchem.Mol object at 0x7f5838db7a70>, <rdkit.Chem.rdchem.Mol object at 0x7f5838db4970>, <rdkit.Chem.rdchem.Mol object at 0x7f5838db4740>, <rdkit.Chem.rdchem.Mol object at 0x7f5838db5000>, <rdkit.Chem.rdchem.Mol object at 0x7f5838db4270>, <rdkit.Chem.rdchem.Mol object at 0x7f5838db49e0>, <rdkit.Chem.rdchem.Mol object at 0x7f5838db46d0>]","[<rdkit.Chem.rdchem.Mol object at 0x7f5838db4120>, <rdkit.Chem.rdchem.Mol object at 0x7f5838db6180>, <rdkit.Chem.rdchem.Mol object at 0x7f5838db4ac0>, <rdkit.Chem.rdchem.Mol object at 0x7f5838db51c0>]","[<rdkit.Chem.rdchem.Mol object at 0x7f5838db7a70>, <rdkit.Chem.rdchem.Mol object at 0x7f5838db4970>, <rdkit.Chem.rdchem.Mol object at 0x7f5838db4740>, <rdkit.Chem.rdchem.Mol object at 0x7f5838db5000>, <rdkit.Chem.rdchem.Mol object at 0x7f5838db4270>, <rdkit.Chem.rdchem.Mol object at 0x7f5838db49e0>, <rdkit.Chem.rdchem.Mol object at 0x7f5838db46d0>, '.', <rdkit.Chem.rdchem.Mol object at 0x7f5838db4120>, <rdkit.Chem.rdchem.Mol object at 0x7f5838db6180>, <rdkit.Chem.rdchem.Mol object at 0x7f5838db4ac0>, <rdkit.Chem.rdchem.Mol object at 0x7f5838db51c0>]","[0, 0, 0, 0, 0, 2452, 2453, 2454, 2455, 2456, 2457, 2458, 1, 2459, 2460, 2461, 2462]"