Donor,Acceptor,HOMO_D_eV,LUMO_D_eV,HOMO_A_eV,LUMO_A_eV,D_A_ratio_m_m,solvent,total_solids_conc_mg_mL,solvent_additive,annealing_temperature,PCE_percent,calc_PCE_percent,Voc_V,FF_percent,Donor_BRICS,Acceptor_BRICS,DA_pair_BRICS,DA_tokenized_BRICS
PTB7-Th,SFBRCN,-5.204782608695651,-3.5391891891891896,-5.93,-3.86,0.833,CB,22.0,DIO,25.0,10.12,10.09,0.9,65.0,"[<rdkit.Chem.rdchem.Mol object at 0x7f5838c7be60>, <rdkit.Chem.rdchem.Mol object at 0x7f5838c7ba70>, <rdkit.Chem.rdchem.Mol object at 0x7f5838c7b840>, <rdkit.Chem.rdchem.Mol object at 0x7f5838c7bed0>, <rdkit.Chem.rdchem.Mol object at 0x7f5838c7bd80>, <rdkit.Chem.rdchem.Mol object at 0x7f5838c7b290>, <rdkit.Chem.rdchem.Mol object at 0x7f5838c80740>]","[<rdkit.Chem.rdchem.Mol object at 0x7f5838c79bd0>, <rdkit.Chem.rdchem.Mol object at 0x7f5838c7b7d0>, <rdkit.Chem.rdchem.Mol object at 0x7f5838c7bae0>, <rdkit.Chem.rdchem.Mol object at 0x7f5838c78580>, <rdkit.Chem.rdchem.Mol object at 0x7f5838c7bdf0>]","[<rdkit.Chem.rdchem.Mol object at 0x7f5838c7be60>, <rdkit.Chem.rdchem.Mol object at 0x7f5838c7ba70>, <rdkit.Chem.rdchem.Mol object at 0x7f5838c7b840>, <rdkit.Chem.rdchem.Mol object at 0x7f5838c7bed0>, <rdkit.Chem.rdchem.Mol object at 0x7f5838c7bd80>, <rdkit.Chem.rdchem.Mol object at 0x7f5838c7b290>, <rdkit.Chem.rdchem.Mol object at 0x7f5838c80740>, '.', <rdkit.Chem.rdchem.Mol object at 0x7f5838c79bd0>, <rdkit.Chem.rdchem.Mol object at 0x7f5838c7b7d0>, <rdkit.Chem.rdchem.Mol object at 0x7f5838c7bae0>, <rdkit.Chem.rdchem.Mol object at 0x7f5838c78580>, <rdkit.Chem.rdchem.Mol object at 0x7f5838c7bdf0>]","[0, 0, 0, 0, 4573, 4574, 4575, 4576, 4577, 4578, 4579, 1, 4580, 4581, 4582, 4583, 4584]"
PBDB-T,IDTIC,-5.297714285714285,-3.4170000000000003,-5.885,-3.91,1.0,CB,20.0,_,25.0,5.67,6.01,0.84,56.3,"[<rdkit.Chem.rdchem.Mol object at 0x7f5838c7bf40>, <rdkit.Chem.rdchem.Mol object at 0x7f5838c805f0>, <rdkit.Chem.rdchem.Mol object at 0x7f5838c809e0>, <rdkit.Chem.rdchem.Mol object at 0x7f5838c80c80>, <rdkit.Chem.rdchem.Mol object at 0x7f5838c81690>]","[<rdkit.Chem.rdchem.Mol object at 0x7f5838c814d0>, <rdkit.Chem.rdchem.Mol object at 0x7f5838c80eb0>, <rdkit.Chem.rdchem.Mol object at 0x7f5838c7b4c0>, <rdkit.Chem.rdchem.Mol object at 0x7f5838c817e0>]","[<rdkit.Chem.rdchem.Mol object at 0x7f5838c7bf40>, <rdkit.Chem.rdchem.Mol object at 0x7f5838c805f0>, <rdkit.Chem.rdchem.Mol object at 0x7f5838c809e0>, <rdkit.Chem.rdchem.Mol object at 0x7f5838c80c80>, <rdkit.Chem.rdchem.Mol object at 0x7f5838c81690>, '.', <rdkit.Chem.rdchem.Mol object at 0x7f5838c814d0>, <rdkit.Chem.rdchem.Mol object at 0x7f5838c80eb0>, <rdkit.Chem.rdchem.Mol object at 0x7f5838c7b4c0>, <rdkit.Chem.rdchem.Mol object at 0x7f5838c817e0>]","[0, 0, 0, 0, 0, 0, 0, 4593, 4594, 4595, 4596, 4597, 1, 4598, 4599, 4600, 4601]"
PBDB-T,IDTTIC,-5.297714285714285,-3.4170000000000003,-5.68,-3.84,1.0,CB,20.0,_,25.0,11.2,11.19,0.919,70.4,"[<rdkit.Chem.rdchem.Mol object at 0x7f5838c7b370>, <rdkit.Chem.rdchem.Mol object at 0x7f5838c81070>, <rdkit.Chem.rdchem.Mol object at 0x7f5838c80c10>, <rdkit.Chem.rdchem.Mol object at 0x7f5838c80190>, <rdkit.Chem.rdchem.Mol object at 0x7f5838c80f20>]","[<rdkit.Chem.rdchem.Mol object at 0x7f5838c81b60>, <rdkit.Chem.rdchem.Mol object at 0x7f5838c80a50>, <rdkit.Chem.rdchem.Mol object at 0x7f5838c81a10>, <rdkit.Chem.rdchem.Mol object at 0x7f5838c81d20>]","[<rdkit.Chem.rdchem.Mol object at 0x7f5838c7b370>, <rdkit.Chem.rdchem.Mol object at 0x7f5838c81070>, <rdkit.Chem.rdchem.Mol object at 0x7f5838c80c10>, <rdkit.Chem.rdchem.Mol object at 0x7f5838c80190>, <rdkit.Chem.rdchem.Mol object at 0x7f5838c80f20>, '.', <rdkit.Chem.rdchem.Mol object at 0x7f5838c81b60>, <rdkit.Chem.rdchem.Mol object at 0x7f5838c80a50>, <rdkit.Chem.rdchem.Mol object at 0x7f5838c81a10>, <rdkit.Chem.rdchem.Mol object at 0x7f5838c81d20>]","[0, 0, 0, 0, 0, 0, 0, 4602, 4603, 4604, 4605, 4606, 1, 4607, 4608, 4609, 4610]"
PTB7-Th,ITIC,-5.204782608695651,-3.5391891891891896,-5.574146341463415,-3.915,0.667,CB,25.0,_,25.0,7.62,7.62,0.822,66.2,"[<rdkit.Chem.rdchem.Mol object at 0x7f5838c7b5a0>, <rdkit.Chem.rdchem.Mol object at 0x7f5838c81380>, <rdkit.Chem.rdchem.Mol object at 0x7f5838c80430>, <rdkit.Chem.rdchem.Mol object at 0x7f5838c81c40>, <rdkit.Chem.rdchem.Mol object at 0x7f5838c81af0>, <rdkit.Chem.rdchem.Mol object at 0x7f5838c81e00>, <rdkit.Chem.rdchem.Mol object at 0x7f5838c812a0>]","[<rdkit.Chem.rdchem.Mol object at 0x7f5838c80ba0>, <rdkit.Chem.rdchem.Mol object at 0x7f5838c80660>, <rdkit.Chem.rdchem.Mol object at 0x7f5838c81930>, <rdkit.Chem.rdchem.Mol object at 0x7f5838c80970>, <rdkit.Chem.rdchem.Mol object at 0x7f5838c80cf0>]","[<rdkit.Chem.rdchem.Mol object at 0x7f5838c7b5a0>, <rdkit.Chem.rdchem.Mol object at 0x7f5838c81380>, <rdkit.Chem.rdchem.Mol object at 0x7f5838c80430>, <rdkit.Chem.rdchem.Mol object at 0x7f5838c81c40>, <rdkit.Chem.rdchem.Mol object at 0x7f5838c81af0>, <rdkit.Chem.rdchem.Mol object at 0x7f5838c81e00>, <rdkit.Chem.rdchem.Mol object at 0x7f5838c812a0>, '.', <rdkit.Chem.rdchem.Mol object at 0x7f5838c80ba0>, <rdkit.Chem.rdchem.Mol object at 0x7f5838c80660>, <rdkit.Chem.rdchem.Mol object at 0x7f5838c81930>, <rdkit.Chem.rdchem.Mol object at 0x7f5838c80970>, <rdkit.Chem.rdchem.Mol object at 0x7f5838c80cf0>]","[0, 0, 0, 0, 4611, 4612, 4613, 4614, 4615, 4616, 4617, 1, 4618, 4619, 4620, 4621, 4622]"
PBDB-T,4TIC-4F,-5.297714285714285,-3.4170000000000003,-5.6,-4.21,1.0,CB,20.0,_,130.0,7.99,7.99,0.652,57.0,"[<rdkit.Chem.rdchem.Mol object at 0x7f5838c826c0>, <rdkit.Chem.rdchem.Mol object at 0x7f5838c82ce0>, <rdkit.Chem.rdchem.Mol object at 0x7f5838c82810>, <rdkit.Chem.rdchem.Mol object at 0x7f5838c81fc0>, <rdkit.Chem.rdchem.Mol object at 0x7f5838c81150>]","[<rdkit.Chem.rdchem.Mol object at 0x7f5838c80e40>, <rdkit.Chem.rdchem.Mol object at 0x7f5838c81cb0>, <rdkit.Chem.rdchem.Mol object at 0x7f5838c83220>, <rdkit.Chem.rdchem.Mol object at 0x7f5838c82500>, <rdkit.Chem.rdchem.Mol object at 0x7f5838c82960>]","[<rdkit.Chem.rdchem.Mol object at 0x7f5838c826c0>, <rdkit.Chem.rdchem.Mol object at 0x7f5838c82ce0>, <rdkit.Chem.rdchem.Mol object at 0x7f5838c82810>, <rdkit.Chem.rdchem.Mol object at 0x7f5838c81fc0>, <rdkit.Chem.rdchem.Mol object at 0x7f5838c81150>, '.', <rdkit.Chem.rdchem.Mol object at 0x7f5838c80e40>, <rdkit.Chem.rdchem.Mol object at 0x7f5838c81cb0>, <rdkit.Chem.rdchem.Mol object at 0x7f5838c83220>, <rdkit.Chem.rdchem.Mol object at 0x7f5838c82500>, <rdkit.Chem.rdchem.Mol object at 0x7f5838c82960>]","[0, 0, 0, 0, 0, 0, 4647, 4648, 4649, 4650, 4651, 1, 4652, 4653, 4654, 4655, 4656]"
PBDB-T,6TIC-4F,-5.297714285714285,-3.4170000000000003,-5.45,-4.14,1.0,CB,20.0,_,25.0,11.14,11.14,0.723,67.0,"[<rdkit.Chem.rdchem.Mol object at 0x7f5838c82e30>, <rdkit.Chem.rdchem.Mol object at 0x7f5838c821f0>, <rdkit.Chem.rdchem.Mol object at 0x7f5838c810e0>, <rdkit.Chem.rdchem.Mol object at 0x7f5838c83300>, <rdkit.Chem.rdchem.Mol object at 0x7f5838c80b30>]","[<rdkit.Chem.rdchem.Mol object at 0x7f5838c836f0>, <rdkit.Chem.rdchem.Mol object at 0x7f5838c825e0>, <rdkit.Chem.rdchem.Mol object at 0x7f5838c82ab0>, <rdkit.Chem.rdchem.Mol object at 0x7f5838c80200>, <rdkit.Chem.rdchem.Mol object at 0x7f5838c804a0>]","[<rdkit.Chem.rdchem.Mol object at 0x7f5838c82e30>, <rdkit.Chem.rdchem.Mol object at 0x7f5838c821f0>, <rdkit.Chem.rdchem.Mol object at 0x7f5838c810e0>, <rdkit.Chem.rdchem.Mol object at 0x7f5838c83300>, <rdkit.Chem.rdchem.Mol object at 0x7f5838c80b30>, '.', <rdkit.Chem.rdchem.Mol object at 0x7f5838c836f0>, <rdkit.Chem.rdchem.Mol object at 0x7f5838c825e0>, <rdkit.Chem.rdchem.Mol object at 0x7f5838c82ab0>, <rdkit.Chem.rdchem.Mol object at 0x7f5838c80200>, <rdkit.Chem.rdchem.Mol object at 0x7f5838c804a0>]","[0, 0, 0, 0, 0, 0, 4657, 4658, 4659, 4660, 4661, 1, 4662, 4663, 4664, 4665, 4666]"
PBDB-T,ITBTR-C2,-5.297714285714285,-3.4170000000000003,-5.3,-3.7,1.0,CB,20.0,DIO,25.0,6.96,6.96,0.89,58.42,"[<rdkit.Chem.rdchem.Mol object at 0x7f5838c82ea0>, <rdkit.Chem.rdchem.Mol object at 0x7f5838c819a0>, <rdkit.Chem.rdchem.Mol object at 0x7f5838c813f0>, <rdkit.Chem.rdchem.Mol object at 0x7f5838c82260>, <rdkit.Chem.rdchem.Mol object at 0x7f5838c83920>]","[<rdkit.Chem.rdchem.Mol object at 0x7f5838c81bd0>, <rdkit.Chem.rdchem.Mol object at 0x7f5838c83c30>, <rdkit.Chem.rdchem.Mol object at 0x7f5838c800b0>, <rdkit.Chem.rdchem.Mol object at 0x7f5838c834c0>]","[<rdkit.Chem.rdchem.Mol object at 0x7f5838c82ea0>, <rdkit.Chem.rdchem.Mol object at 0x7f5838c819a0>, <rdkit.Chem.rdchem.Mol object at 0x7f5838c813f0>, <rdkit.Chem.rdchem.Mol object at 0x7f5838c82260>, <rdkit.Chem.rdchem.Mol object at 0x7f5838c83920>, '.', <rdkit.Chem.rdchem.Mol object at 0x7f5838c81bd0>, <rdkit.Chem.rdchem.Mol object at 0x7f5838c83c30>, <rdkit.Chem.rdchem.Mol object at 0x7f5838c800b0>, <rdkit.Chem.rdchem.Mol object at 0x7f5838c834c0>]","[0, 0, 0, 0, 0, 0, 0, 4667, 4668, 4669, 4670, 4671, 1, 4672, 4673, 4674, 4675]"
PBDB-T,ITBTR-C4,-5.297714285714285,-3.4170000000000003,-5.3,-3.71,1.0,CB,20.0,DIO,25.0,7.33,7.19,0.9,54.15,"[<rdkit.Chem.rdchem.Mol object at 0x7f5838c80820>, <rdkit.Chem.rdchem.Mol object at 0x7f5838c83a70>, <rdkit.Chem.rdchem.Mol object at 0x7f5838c82dc0>, <rdkit.Chem.rdchem.Mol object at 0x7f5838c820a0>, <rdkit.Chem.rdchem.Mol object at 0x7f5838c82490>]","[<rdkit.Chem.rdchem.Mol object at 0x7f5838c80890>, <rdkit.Chem.rdchem.Mol object at 0x7f5838c83ae0>, <rdkit.Chem.rdchem.Mol object at 0x7f5838c81460>, <rdkit.Chem.rdchem.Mol object at 0x7f5838c82030>]","[<rdkit.Chem.rdchem.Mol object at 0x7f5838c80820>, <rdkit.Chem.rdchem.Mol object at 0x7f5838c83a70>, <rdkit.Chem.rdchem.Mol object at 0x7f5838c82dc0>, <rdkit.Chem.rdchem.Mol object at 0x7f5838c820a0>, <rdkit.Chem.rdchem.Mol object at 0x7f5838c82490>, '.', <rdkit.Chem.rdchem.Mol object at 0x7f5838c80890>, <rdkit.Chem.rdchem.Mol object at 0x7f5838c83ae0>, <rdkit.Chem.rdchem.Mol object at 0x7f5838c81460>, <rdkit.Chem.rdchem.Mol object at 0x7f5838c82030>]","[0, 0, 0, 0, 0, 0, 0, 4676, 4677, 4678, 4679, 4680, 1, 4681, 4682, 4683, 4684]"
PBDB-T,ITBTR-C6,-5.297714285714285,-3.4170000000000003,-5.3,-3.71,1.0,CB,20.0,DIO,25.0,8.18,8.09,0.89,57.83,"[<rdkit.Chem.rdchem.Mol object at 0x7f5838c83840>, <rdkit.Chem.rdchem.Mol object at 0x7f5838c80dd0>, <rdkit.Chem.rdchem.Mol object at 0x7f5838c822d0>, <rdkit.Chem.rdchem.Mol object at 0x7f5838c80f90>, <rdkit.Chem.rdchem.Mol object at 0x7f5838c88200>]","[<rdkit.Chem.rdchem.Mol object at 0x7f5838c807b0>, <rdkit.Chem.rdchem.Mol object at 0x7f5838c82180>, <rdkit.Chem.rdchem.Mol object at 0x7f5838c83d10>]","[<rdkit.Chem.rdchem.Mol object at 0x7f5838c83840>, <rdkit.Chem.rdchem.Mol object at 0x7f5838c80dd0>, <rdkit.Chem.rdchem.Mol object at 0x7f5838c822d0>, <rdkit.Chem.rdchem.Mol object at 0x7f5838c80f90>, <rdkit.Chem.rdchem.Mol object at 0x7f5838c88200>, '.', <rdkit.Chem.rdchem.Mol object at 0x7f5838c807b0>, <rdkit.Chem.rdchem.Mol object at 0x7f5838c82180>, <rdkit.Chem.rdchem.Mol object at 0x7f5838c83d10>]","[0, 0, 0, 0, 0, 0, 0, 0, 4685, 4686, 4687, 4688, 4689, 1, 4690, 4691, 4692]"
PBDB-T,ITBTR-C8,-5.297714285714285,-3.4170000000000003,-5.28,-3.7,1.0,CB,20.0,DIO,25.0,7.85,7.76,0.9,58.47,"[<rdkit.Chem.rdchem.Mol object at 0x7f5838c81700>, <rdkit.Chem.rdchem.Mol object at 0x7f5838c83df0>, <rdkit.Chem.rdchem.Mol object at 0x7f5838c82d50>, <rdkit.Chem.rdchem.Mol object at 0x7f5838c82420>, <rdkit.Chem.rdchem.Mol object at 0x7f5838c88190>]","[<rdkit.Chem.rdchem.Mol object at 0x7f5838c83f40>, <rdkit.Chem.rdchem.Mol object at 0x7f5838c82110>, <rdkit.Chem.rdchem.Mol object at 0x7f5838c80270>, <rdkit.Chem.rdchem.Mol object at 0x7f5838c80ac0>]","[<rdkit.Chem.rdchem.Mol object at 0x7f5838c81700>, <rdkit.Chem.rdchem.Mol object at 0x7f5838c83df0>, <rdkit.Chem.rdchem.Mol object at 0x7f5838c82d50>, <rdkit.Chem.rdchem.Mol object at 0x7f5838c82420>, <rdkit.Chem.rdchem.Mol object at 0x7f5838c88190>, '.', <rdkit.Chem.rdchem.Mol object at 0x7f5838c83f40>, <rdkit.Chem.rdchem.Mol object at 0x7f5838c82110>, <rdkit.Chem.rdchem.Mol object at 0x7f5838c80270>, <rdkit.Chem.rdchem.Mol object at 0x7f5838c80ac0>]","[0, 0, 0, 0, 0, 0, 0, 4693, 4694, 4695, 4696, 4697, 1, 4698, 4699, 4700, 4701]"
PBDB-T2Cl,IDIC-4H,-5.510000000000001,-3.57,-5.7,-3.87,1.0,CB,10.0,DIO,25.0,4.57,4.58,0.98,45.3,"[<rdkit.Chem.rdchem.Mol object at 0x7f5838c80d60>, <rdkit.Chem.rdchem.Mol object at 0x7f5838c838b0>, <rdkit.Chem.rdchem.Mol object at 0x7f5838c82c70>, <rdkit.Chem.rdchem.Mol object at 0x7f5838c828f0>, <rdkit.Chem.rdchem.Mol object at 0x7f5838c83e60>, <rdkit.Chem.rdchem.Mol object at 0x7f5838c88580>]","[<rdkit.Chem.rdchem.Mol object at 0x7f5838c82880>, <rdkit.Chem.rdchem.Mol object at 0x7f5838c83a00>, <rdkit.Chem.rdchem.Mol object at 0x7f5838c83ed0>, <rdkit.Chem.rdchem.Mol object at 0x7f5838c818c0>, <rdkit.Chem.rdchem.Mol object at 0x7f5838c88660>]","[<rdkit.Chem.rdchem.Mol object at 0x7f5838c80d60>, <rdkit.Chem.rdchem.Mol object at 0x7f5838c838b0>, <rdkit.Chem.rdchem.Mol object at 0x7f5838c82c70>, <rdkit.Chem.rdchem.Mol object at 0x7f5838c828f0>, <rdkit.Chem.rdchem.Mol object at 0x7f5838c83e60>, <rdkit.Chem.rdchem.Mol object at 0x7f5838c88580>, '.', <rdkit.Chem.rdchem.Mol object at 0x7f5838c82880>, <rdkit.Chem.rdchem.Mol object at 0x7f5838c83a00>, <rdkit.Chem.rdchem.Mol object at 0x7f5838c83ed0>, <rdkit.Chem.rdchem.Mol object at 0x7f5838c818c0>, <rdkit.Chem.rdchem.Mol object at 0x7f5838c88660>]","[0, 0, 0, 0, 0, 4702, 4703, 4704, 4705, 4706, 4707, 1, 4708, 4709, 4710, 4711, 4712]"
PBDB-T2Cl,IDIC-4F,-5.510000000000001,-3.57,-5.73,-3.93,1.0,CB,10.0,DIO,25.0,7.1,7.08,0.88,61.91,"[<rdkit.Chem.rdchem.Mol object at 0x7f5838c82570>, <rdkit.Chem.rdchem.Mol object at 0x7f5838c88970>, <rdkit.Chem.rdchem.Mol object at 0x7f5838c88430>, <rdkit.Chem.rdchem.Mol object at 0x7f5838c88350>, <rdkit.Chem.rdchem.Mol object at 0x7f5838c883c0>, <rdkit.Chem.rdchem.Mol object at 0x7f5838c88040>]","[<rdkit.Chem.rdchem.Mol object at 0x7f5838c83b50>, <rdkit.Chem.rdchem.Mol object at 0x7f5838c89380>, <rdkit.Chem.rdchem.Mol object at 0x7f5838c82730>, <rdkit.Chem.rdchem.Mol object at 0x7f5838c830d0>, <rdkit.Chem.rdchem.Mol object at 0x7f5838c88120>]","[<rdkit.Chem.rdchem.Mol object at 0x7f5838c82570>, <rdkit.Chem.rdchem.Mol object at 0x7f5838c88970>, <rdkit.Chem.rdchem.Mol object at 0x7f5838c88430>, <rdkit.Chem.rdchem.Mol object at 0x7f5838c88350>, <rdkit.Chem.rdchem.Mol object at 0x7f5838c883c0>, <rdkit.Chem.rdchem.Mol object at 0x7f5838c88040>, '.', <rdkit.Chem.rdchem.Mol object at 0x7f5838c83b50>, <rdkit.Chem.rdchem.Mol object at 0x7f5838c89380>, <rdkit.Chem.rdchem.Mol object at 0x7f5838c82730>, <rdkit.Chem.rdchem.Mol object at 0x7f5838c830d0>, <rdkit.Chem.rdchem.Mol object at 0x7f5838c88120>]","[0, 0, 0, 0, 0, 4713, 4714, 4715, 4716, 4717, 4718, 1, 4719, 4720, 4721, 4722, 4723]"
PBDB-T2Cl,IDIC-4Cl,-5.510000000000001,-3.57,-5.78,-4.02,1.0,CB,10.0,DIO,25.0,9.24,9.24,0.83,68.69,"[<rdkit.Chem.rdchem.Mol object at 0x7f5838c81770>, <rdkit.Chem.rdchem.Mol object at 0x7f5838c88b30>, <rdkit.Chem.rdchem.Mol object at 0x7f5838c891c0>, <rdkit.Chem.rdchem.Mol object at 0x7f5838c88d60>, <rdkit.Chem.rdchem.Mol object at 0x7f5838c88890>, <rdkit.Chem.rdchem.Mol object at 0x7f5838c89070>]","[<rdkit.Chem.rdchem.Mol object at 0x7f5838c82340>, <rdkit.Chem.rdchem.Mol object at 0x7f5838c88eb0>, <rdkit.Chem.rdchem.Mol object at 0x7f5838c81d90>, <rdkit.Chem.rdchem.Mol object at 0x7f5838c83290>, <rdkit.Chem.rdchem.Mol object at 0x7f5838c88270>]","[<rdkit.Chem.rdchem.Mol object at 0x7f5838c81770>, <rdkit.Chem.rdchem.Mol object at 0x7f5838c88b30>, <rdkit.Chem.rdchem.Mol object at 0x7f5838c891c0>, <rdkit.Chem.rdchem.Mol object at 0x7f5838c88d60>, <rdkit.Chem.rdchem.Mol object at 0x7f5838c88890>, <rdkit.Chem.rdchem.Mol object at 0x7f5838c89070>, '.', <rdkit.Chem.rdchem.Mol object at 0x7f5838c82340>, <rdkit.Chem.rdchem.Mol object at 0x7f5838c88eb0>, <rdkit.Chem.rdchem.Mol object at 0x7f5838c81d90>, <rdkit.Chem.rdchem.Mol object at 0x7f5838c83290>, <rdkit.Chem.rdchem.Mol object at 0x7f5838c88270>]","[0, 0, 0, 0, 0, 4724, 4725, 4726, 4727, 4728, 4729, 1, 4730, 4731, 4732, 4733, 4734]"
PBDB-T,IT-M,-5.297714285714285,-3.4170000000000003,-5.513571428571429,-3.808,1.0,CB,10.0,_,100.0,11.74,11.72,0.95,72.0,"[<rdkit.Chem.rdchem.Mol object at 0x7f5838c83bc0>, <rdkit.Chem.rdchem.Mol object at 0x7f5838c889e0>, <rdkit.Chem.rdchem.Mol object at 0x7f5838c898c0>, <rdkit.Chem.rdchem.Mol object at 0x7f5838c88c10>, <rdkit.Chem.rdchem.Mol object at 0x7f5838c89c40>]","[<rdkit.Chem.rdchem.Mol object at 0x7f5838c837d0>, <rdkit.Chem.rdchem.Mol object at 0x7f5838c89a10>, <rdkit.Chem.rdchem.Mol object at 0x7f5838c83d80>, <rdkit.Chem.rdchem.Mol object at 0x7f5838c89f50>, <rdkit.Chem.rdchem.Mol object at 0x7f5838c884a0>]","[<rdkit.Chem.rdchem.Mol object at 0x7f5838c83bc0>, <rdkit.Chem.rdchem.Mol object at 0x7f5838c889e0>, <rdkit.Chem.rdchem.Mol object at 0x7f5838c898c0>, <rdkit.Chem.rdchem.Mol object at 0x7f5838c88c10>, <rdkit.Chem.rdchem.Mol object at 0x7f5838c89c40>, '.', <rdkit.Chem.rdchem.Mol object at 0x7f5838c837d0>, <rdkit.Chem.rdchem.Mol object at 0x7f5838c89a10>, <rdkit.Chem.rdchem.Mol object at 0x7f5838c83d80>, <rdkit.Chem.rdchem.Mol object at 0x7f5838c89f50>, <rdkit.Chem.rdchem.Mol object at 0x7f5838c884a0>]","[0, 0, 0, 0, 0, 0, 4735, 4736, 4737, 4738, 4739, 1, 4740, 4741, 4742, 4743, 4744]"
PBDB-T,IDT-O-IC,-5.297714285714285,-3.4170000000000003,-5.77,-3.79,0.833,o-DCB,8.8,_,25.0,6.23,6.22,0.84,63.0,"[<rdkit.Chem.rdchem.Mol object at 0x7f5838c83760>, <rdkit.Chem.rdchem.Mol object at 0x7f5838c89bd0>, <rdkit.Chem.rdchem.Mol object at 0x7f5838c8a730>, <rdkit.Chem.rdchem.Mol object at 0x7f5838c8b7d0>, <rdkit.Chem.rdchem.Mol object at 0x7f5838c94190>]","[<rdkit.Chem.rdchem.Mol object at 0x7f5838c8be60>, <rdkit.Chem.rdchem.Mol object at 0x7f5838c8bca0>, <rdkit.Chem.rdchem.Mol object at 0x7f5838c88510>, <rdkit.Chem.rdchem.Mol object at 0x7f5838c8af80>, <rdkit.Chem.rdchem.Mol object at 0x7f5838c8b840>, <rdkit.Chem.rdchem.Mol object at 0x7f5838c8b4c0>]","[<rdkit.Chem.rdchem.Mol object at 0x7f5838c83760>, <rdkit.Chem.rdchem.Mol object at 0x7f5838c89bd0>, <rdkit.Chem.rdchem.Mol object at 0x7f5838c8a730>, <rdkit.Chem.rdchem.Mol object at 0x7f5838c8b7d0>, <rdkit.Chem.rdchem.Mol object at 0x7f5838c94190>, '.', <rdkit.Chem.rdchem.Mol object at 0x7f5838c8be60>, <rdkit.Chem.rdchem.Mol object at 0x7f5838c8bca0>, <rdkit.Chem.rdchem.Mol object at 0x7f5838c88510>, <rdkit.Chem.rdchem.Mol object at 0x7f5838c8af80>, <rdkit.Chem.rdchem.Mol object at 0x7f5838c8b840>, <rdkit.Chem.rdchem.Mol object at 0x7f5838c8b4c0>]","[0, 0, 0, 0, 0, 4818, 4819, 4820, 4821, 4822, 1, 4823, 4824, 4825, 4826, 4827, 4828]"
PBDB-T,ICBF,-5.297714285714285,-3.4170000000000003,-5.64,-3.8,1.0,CB,20.0,_,25.0,6.07,6.13,0.99,60.1,"[<rdkit.Chem.rdchem.Mol object at 0x7f5838c8ace0>, <rdkit.Chem.rdchem.Mol object at 0x7f5838c94eb0>, <rdkit.Chem.rdchem.Mol object at 0x7f5838c94ba0>, <rdkit.Chem.rdchem.Mol object at 0x7f5838c940b0>, <rdkit.Chem.rdchem.Mol object at 0x7f5838c95230>]","[<rdkit.Chem.rdchem.Mol object at 0x7f5838c8ac70>, <rdkit.Chem.rdchem.Mol object at 0x7f5838c949e0>, <rdkit.Chem.rdchem.Mol object at 0x7f5838c8b6f0>, <rdkit.Chem.rdchem.Mol object at 0x7f5838c8bd80>, <rdkit.Chem.rdchem.Mol object at 0x7f5838c8b530>]","[<rdkit.Chem.rdchem.Mol object at 0x7f5838c8ace0>, <rdkit.Chem.rdchem.Mol object at 0x7f5838c94eb0>, <rdkit.Chem.rdchem.Mol object at 0x7f5838c94ba0>, <rdkit.Chem.rdchem.Mol object at 0x7f5838c940b0>, <rdkit.Chem.rdchem.Mol object at 0x7f5838c95230>, '.', <rdkit.Chem.rdchem.Mol object at 0x7f5838c8ac70>, <rdkit.Chem.rdchem.Mol object at 0x7f5838c949e0>, <rdkit.Chem.rdchem.Mol object at 0x7f5838c8b6f0>, <rdkit.Chem.rdchem.Mol object at 0x7f5838c8bd80>, <rdkit.Chem.rdchem.Mol object at 0x7f5838c8b530>]","[0, 0, 0, 0, 0, 0, 4851, 4852, 4853, 4854, 4855, 1, 4856, 4857, 4858, 4859, 4860]"