Donor,Acceptor,HOMO_D_eV,LUMO_D_eV,HOMO_A_eV,LUMO_A_eV,D_A_ratio_m_m,solvent,solvent_additive,annealing_temperature,hole_contact_layer,electron_contact_layer,PCE_percent,calc_PCE_percent,Voc_V,FF_percent,DA_manual_tokenized,DA_manual_tokenized_aug
P3HT,IDT-RCN,-5.057777777777777,-2.989444444444445,-5.62,-3.75,1.25,CB,CN,25.0,PEDOT:PSS,Ca,3.42,3.44,0.69,63.0,"[0, 0, 41, 40, 40, 194, 1, 236, 56, 7, 219, 221, 219, 7, 56, 236]","[[0, 0, 41, 40, 40, 194, 1, 236, 56, 7, 219, 221, 219, 7, 56, 236], [0, 0, 194, 41, 40, 40, 1, 236, 56, 7, 219, 221, 219, 7, 56, 236], [0, 0, 40, 194, 41, 40, 1, 236, 56, 7, 219, 221, 219, 7, 56, 236], [0, 0, 40, 40, 194, 41, 1, 236, 56, 7, 219, 221, 219, 7, 56, 236]]"
P3HT,IDT-CA,-5.057777777777777,-2.989444444444445,-5.59,-3.64,1.25,CB,CN,25.0,PEDOT:PSS,Ca,4.19,4.18,0.84,64.0,"[0, 0, 41, 40, 40, 194, 1, 256, 56, 7, 219, 221, 219, 7, 56, 256]","[[0, 0, 41, 40, 40, 194, 1, 256, 56, 7, 219, 221, 219, 7, 56, 256], [0, 0, 194, 41, 40, 40, 1, 256, 56, 7, 219, 221, 219, 7, 56, 256], [0, 0, 40, 194, 41, 40, 1, 256, 56, 7, 219, 221, 219, 7, 56, 256], [0, 0, 40, 40, 194, 41, 1, 256, 56, 7, 219, 221, 219, 7, 56, 256]]"
PBDB-T,IDTO-T-4F,-5.297714285714285,-3.4170000000000003,-5.49,-3.88,0.833,CF,DIO,25.0,PEDOT:PSS,PDINO,12.62,12.64,0.864,72.7,"[0, 0, 49, 7, 100, 9, 1, 217, 7, 373, 219, 221, 219, 373, 7, 217]","[[0, 0, 49, 7, 100, 9, 1, 217, 7, 373, 219, 221, 219, 373, 7, 217], [0, 0, 9, 49, 7, 100, 1, 217, 7, 373, 219, 221, 219, 373, 7, 217], [0, 0, 100, 9, 49, 7, 1, 217, 7, 373, 219, 221, 219, 373, 7, 217], [0, 0, 7, 100, 9, 49, 1, 217, 7, 373, 219, 221, 219, 373, 7, 217]]"
PBDB-T,IDTO-Se-4F,-5.297714285714285,-3.4170000000000003,-5.48,-3.9,0.909,CB,DIO,25.0,PEDOT:PSS,PDINO,10.67,10.67,0.831,69.2,"[0, 0, 49, 7, 100, 9, 1, 217, 257, 373, 219, 221, 219, 373, 257, 217]","[[0, 0, 49, 7, 100, 9, 1, 217, 257, 373, 219, 221, 219, 373, 257, 217], [0, 0, 9, 49, 7, 100, 1, 217, 257, 373, 219, 221, 219, 373, 257, 217], [0, 0, 100, 9, 49, 7, 1, 217, 257, 373, 219, 221, 219, 373, 257, 217], [0, 0, 7, 100, 9, 49, 1, 217, 257, 373, 219, 221, 219, 373, 257, 217]]"
PBDB-T,IDTO-TT-4F,-5.297714285714285,-3.4170000000000003,-5.39,-3.89,0.909,CF,DIO,25.0,PEDOT:PSS,PDINO,10.21,10.22,0.856,69.4,"[0, 0, 49, 7, 100, 9, 1, 217, 79, 373, 219, 221, 219, 373, 79, 217]","[[0, 0, 49, 7, 100, 9, 1, 217, 79, 373, 219, 221, 219, 373, 79, 217], [0, 0, 9, 49, 7, 100, 1, 217, 79, 373, 219, 221, 219, 373, 79, 217], [0, 0, 100, 9, 49, 7, 1, 217, 79, 373, 219, 221, 219, 373, 79, 217], [0, 0, 7, 100, 9, 49, 1, 217, 79, 373, 219, 221, 219, 373, 79, 217]]"
PBDB-T,IDT2Se,-5.297714285714285,-3.4170000000000003,-5.41,-3.87,1.0,CB,_,80.0,PEDOT:PSS,PDINO,9.11,9.11,0.88,59.8,"[0, 0, 49, 7, 100, 9, 1, 222, 257, 7, 219, 221, 219, 7, 257, 222]","[[0, 0, 49, 7, 100, 9, 1, 222, 257, 7, 219, 221, 219, 7, 257, 222], [0, 0, 9, 49, 7, 100, 1, 222, 257, 7, 219, 221, 219, 7, 257, 222], [0, 0, 100, 9, 49, 7, 1, 222, 257, 7, 219, 221, 219, 7, 257, 222], [0, 0, 7, 100, 9, 49, 1, 222, 257, 7, 219, 221, 219, 7, 257, 222]]"
PBDB-T,IDT2Se-4F,-5.297714285714285,-3.4170000000000003,-5.51,-4.0,1.0,CB,_,80.0,PEDOT:PSS,PDINO,11.03,11.03,0.79,65.4,"[0, 0, 49, 7, 100, 9, 1, 217, 257, 7, 219, 221, 219, 7, 257, 217]","[[0, 0, 49, 7, 100, 9, 1, 217, 257, 7, 219, 221, 219, 7, 257, 217], [0, 0, 9, 49, 7, 100, 1, 217, 257, 7, 219, 221, 219, 7, 257, 217], [0, 0, 100, 9, 49, 7, 1, 217, 257, 7, 219, 221, 219, 7, 257, 217], [0, 0, 7, 100, 9, 49, 1, 217, 257, 7, 219, 221, 219, 7, 257, 217]]"
PBDT-Se-TAZ,ITIC,-5.23,-3.45,-5.574146341463415,-3.915,1.0,CF,DIO,25.0,MoOx,ZnO,10.07,10.07,0.81,66.7,"[0, 0, 0, 0, 176, 7, 177, 9, 1, 222, 79, 219, 221, 219, 79, 222]","[[0, 0, 0, 0, 176, 7, 177, 9, 1, 222, 79, 219, 221, 219, 79, 222], [0, 0, 0, 0, 9, 176, 7, 177, 1, 222, 79, 219, 221, 219, 79, 222], [0, 0, 0, 0, 177, 9, 176, 7, 1, 222, 79, 219, 221, 219, 79, 222], [0, 0, 0, 0, 7, 177, 9, 176, 1, 222, 79, 219, 221, 219, 79, 222]]"
PBDTS-Se-TAZ,ITIC,-5.29,-3.49,-5.574146341463415,-3.915,1.0,CF,DIO,25.0,MoOx,ZnO,12.31,12.31,0.84,75.1,"[0, 0, 0, 0, 178, 7, 17, 9, 1, 222, 79, 219, 221, 219, 79, 222]","[[0, 0, 0, 0, 178, 7, 17, 9, 1, 222, 79, 219, 221, 219, 79, 222], [0, 0, 0, 0, 9, 178, 7, 17, 1, 222, 79, 219, 221, 219, 79, 222], [0, 0, 0, 0, 17, 9, 178, 7, 1, 222, 79, 219, 221, 219, 79, 222], [0, 0, 0, 0, 7, 17, 9, 178, 1, 222, 79, 219, 221, 219, 79, 222]]"
PBDB-TF,IT-M,-5.497142857142857,-3.6428571428571423,-5.513571428571429,-3.808,1.0,CB,DIO,100.0,PEDOT:PSS,PFN-Br,10.5,10.47,1.02,65.0,"[0, 0, 0, 0, 99, 7, 100, 9, 1, 230, 79, 219, 221, 219, 79, 230]","[[0, 0, 0, 0, 99, 7, 100, 9, 1, 230, 79, 219, 221, 219, 79, 230], [0, 0, 0, 0, 9, 99, 7, 100, 1, 230, 79, 219, 221, 219, 79, 230], [0, 0, 0, 0, 100, 9, 99, 7, 1, 230, 79, 219, 221, 219, 79, 230], [0, 0, 0, 0, 7, 100, 9, 99, 1, 230, 79, 219, 221, 219, 79, 230]]"
PBDB-TF,IT-4F,-5.497142857142857,-3.6428571428571423,-5.66875,-4.060416666666667,1.0,CB,DIO,100.0,PEDOT:PSS,PFN-Br,13.7,13.65,0.87,77.0,"[0, 0, 0, 0, 99, 7, 100, 9, 1, 217, 79, 219, 221, 219, 79, 217]","[[0, 0, 0, 0, 99, 7, 100, 9, 1, 217, 79, 219, 221, 219, 79, 217], [0, 0, 0, 0, 9, 99, 7, 100, 1, 217, 79, 219, 221, 219, 79, 217], [0, 0, 0, 0, 100, 9, 99, 7, 1, 217, 79, 219, 221, 219, 79, 217], [0, 0, 0, 0, 7, 100, 9, 99, 1, 217, 79, 219, 221, 219, 79, 217]]"
PBZ1,ITIC,-5.27,-3.06,-5.574146341463415,-3.915,1.0,Toluene,_,160.0,MoOx,ZnO,5.8,5.79,0.74,49.8,"[0, 0, 0, 0, 179, 7, 8, 9, 1, 222, 79, 219, 221, 219, 79, 222]","[[0, 0, 0, 0, 179, 7, 8, 9, 1, 222, 79, 219, 221, 219, 79, 222], [0, 0, 0, 0, 9, 179, 7, 8, 1, 222, 79, 219, 221, 219, 79, 222], [0, 0, 0, 0, 8, 9, 179, 7, 1, 222, 79, 219, 221, 219, 79, 222], [0, 0, 0, 0, 7, 8, 9, 179, 1, 222, 79, 219, 221, 219, 79, 222]]"
PBZ-m-CF3,ITIC,-5.49,-3.22,-5.574146341463415,-3.915,1.0,Toluene,_,160.0,MoOx,ZnO,10.4,10.41,0.94,60.2,"[0, 0, 0, 0, 180, 7, 8, 9, 1, 222, 79, 219, 221, 219, 79, 222]","[[0, 0, 0, 0, 180, 7, 8, 9, 1, 222, 79, 219, 221, 219, 79, 222], [0, 0, 0, 0, 9, 180, 7, 8, 1, 222, 79, 219, 221, 219, 79, 222], [0, 0, 0, 0, 8, 9, 180, 7, 1, 222, 79, 219, 221, 219, 79, 222], [0, 0, 0, 0, 7, 8, 9, 180, 1, 222, 79, 219, 221, 219, 79, 222]]"
PBDB-TF,HF-PCIC,-5.497142857142857,-3.6428571428571423,-5.53,-3.83,0.833,CB,CN,110.0,MoOx,ZnO,10.97,10.67,0.92,72.42,"[0, 0, 99, 7, 100, 9, 1, 217, 7, 258, 7, 259, 7, 260, 7, 217]","[[0, 0, 99, 7, 100, 9, 1, 217, 7, 258, 7, 259, 7, 260, 7, 217], [0, 0, 9, 99, 7, 100, 1, 217, 7, 258, 7, 259, 7, 260, 7, 217], [0, 0, 100, 9, 99, 7, 1, 217, 7, 258, 7, 259, 7, 260, 7, 217], [0, 0, 7, 100, 9, 99, 1, 217, 7, 258, 7, 259, 7, 260, 7, 217]]"
PBDB-TF,HFO-PCIC,-5.497142857142857,-3.6428571428571423,-5.5,-3.81,0.833,CB,CN,110.0,MoOx,ZnO,8.36,8.33,0.93,70.99,"[0, 0, 99, 7, 100, 9, 1, 217, 7, 258, 7, 261, 7, 260, 7, 217]","[[0, 0, 99, 7, 100, 9, 1, 217, 7, 258, 7, 261, 7, 260, 7, 217], [0, 0, 9, 99, 7, 100, 1, 217, 7, 258, 7, 261, 7, 260, 7, 217], [0, 0, 100, 9, 99, 7, 1, 217, 7, 258, 7, 261, 7, 260, 7, 217], [0, 0, 7, 100, 9, 99, 1, 217, 7, 258, 7, 261, 7, 260, 7, 217]]"
PBDB-TF,OF-PCIC,-5.497142857142857,-3.6428571428571423,-5.66,-3.86,0.833,CB,CN,110.0,MoOx,ZnO,9.09,9.19,0.91,73.37,"[0, 0, 99, 7, 100, 9, 1, 217, 7, 258, 7, 262, 7, 260, 7, 217]","[[0, 0, 99, 7, 100, 9, 1, 217, 7, 258, 7, 262, 7, 260, 7, 217], [0, 0, 9, 99, 7, 100, 1, 217, 7, 258, 7, 262, 7, 260, 7, 217], [0, 0, 100, 9, 99, 7, 1, 217, 7, 258, 7, 262, 7, 260, 7, 217], [0, 0, 7, 100, 9, 99, 1, 217, 7, 258, 7, 262, 7, 260, 7, 217]]"
PBDB-T,IF-TN,-5.297714285714285,-3.4170000000000003,-5.8,-3.93,1.0,CB,CN,80.0,PEDOT:PSS,PNDIT-F3N-Br,2.89,2.89,1.006,40.95,"[0, 0, 49, 7, 100, 9, 1, 237, 64, 221, 234, 221, 234, 221, 64, 237]","[[0, 0, 49, 7, 100, 9, 1, 237, 64, 221, 234, 221, 234, 221, 64, 237], [0, 0, 9, 49, 7, 100, 1, 237, 64, 221, 234, 221, 234, 221, 64, 237], [0, 0, 100, 9, 49, 7, 1, 237, 64, 221, 234, 221, 234, 221, 64, 237], [0, 0, 7, 100, 9, 49, 1, 237, 64, 221, 234, 221, 234, 221, 64, 237]]"
PBDB-T,IDT-TN,-5.297714285714285,-3.4170000000000003,-5.42,-4.03,1.0,CB,CN,80.0,PEDOT:PSS,PNDIT-F3N-Br,5.77,5.77,0.967,45.17,"[0, 0, 49, 7, 100, 9, 1, 237, 64, 7, 234, 221, 234, 7, 64, 237]","[[0, 0, 49, 7, 100, 9, 1, 237, 64, 7, 234, 221, 234, 7, 64, 237], [0, 0, 9, 49, 7, 100, 1, 237, 64, 7, 234, 221, 234, 7, 64, 237], [0, 0, 100, 9, 49, 7, 1, 237, 64, 7, 234, 221, 234, 7, 64, 237], [0, 0, 7, 100, 9, 49, 1, 237, 64, 7, 234, 221, 234, 7, 64, 237]]"
PBDB-T,IT-M,-5.297714285714285,-3.4170000000000003,-5.513571428571429,-3.808,1.0,CB,DIO,25.0,PEDOT:PSS,PDINO,10.31,10.36,0.93,66.77,"[0, 0, 0, 0, 49, 7, 100, 9, 1, 230, 79, 219, 221, 219, 79, 230]","[[0, 0, 0, 0, 49, 7, 100, 9, 1, 230, 79, 219, 221, 219, 79, 230], [0, 0, 0, 0, 9, 49, 7, 100, 1, 230, 79, 219, 221, 219, 79, 230], [0, 0, 0, 0, 100, 9, 49, 7, 1, 230, 79, 219, 221, 219, 79, 230], [0, 0, 0, 0, 7, 100, 9, 49, 1, 230, 79, 219, 221, 219, 79, 230]]"
PBDB-T,ITIC-Cl4,-5.297714285714285,-3.4170000000000003,-5.5,-3.9,1.0,o-DCB,CN,25.0,MoOx,ZnO,9.6,9.55,0.74,60.0,"[0, 0, 0, 0, 49, 7, 100, 9, 1, 231, 79, 219, 221, 219, 79, 231]","[[0, 0, 0, 0, 49, 7, 100, 9, 1, 231, 79, 219, 221, 219, 79, 231], [0, 0, 0, 0, 9, 49, 7, 100, 1, 231, 79, 219, 221, 219, 79, 231], [0, 0, 0, 0, 100, 9, 49, 7, 1, 231, 79, 219, 221, 219, 79, 231], [0, 0, 0, 0, 7, 100, 9, 49, 1, 231, 79, 219, 221, 219, 79, 231]]"
PBDTS-TzBI,ITIC,-5.39,-3.52,-5.574146341463415,-3.915,1.0,CB,_,130.0,PEDOT:PSS,PFN-Br,9.04,8.88,0.94,56.2,"[0, 0, 0, 0, 14, 7, 212, 9, 1, 222, 79, 219, 221, 219, 79, 222]","[[0, 0, 0, 0, 14, 7, 212, 9, 1, 222, 79, 219, 221, 219, 79, 222], [0, 0, 0, 0, 9, 14, 7, 212, 1, 222, 79, 219, 221, 219, 79, 222], [0, 0, 0, 0, 212, 9, 14, 7, 1, 222, 79, 219, 221, 219, 79, 222], [0, 0, 0, 0, 7, 212, 9, 14, 1, 222, 79, 219, 221, 219, 79, 222]]"
PBDTS-TzBI,ITIC-Th,-5.39,-3.52,-5.673333333333334,-3.908888888888889,1.0,CB,_,130.0,PEDOT:PSS,PFN-Br,9.67,9.54,0.91,60.44,"[0, 0, 0, 0, 14, 7, 212, 9, 1, 222, 79, 313, 221, 313, 79, 222]","[[0, 0, 0, 0, 14, 7, 212, 9, 1, 222, 79, 313, 221, 313, 79, 222], [0, 0, 0, 0, 9, 14, 7, 212, 1, 222, 79, 313, 221, 313, 79, 222], [0, 0, 0, 0, 212, 9, 14, 7, 1, 222, 79, 313, 221, 313, 79, 222], [0, 0, 0, 0, 7, 212, 9, 14, 1, 222, 79, 313, 221, 313, 79, 222]]"
PBDB-T,NFBDT-Me,-5.297714285714285,-3.4170000000000003,-5.4,-3.78,1.667,CF,_,25.0,PEDOT:PSS,PDIN,11.0,11.01,0.909,70.0,"[0, 0, 0, 0, 49, 7, 100, 9, 1, 263, 7, 219, 374, 219, 7, 263]","[[0, 0, 0, 0, 49, 7, 100, 9, 1, 263, 7, 219, 374, 219, 7, 263], [0, 0, 0, 0, 9, 49, 7, 100, 1, 263, 7, 219, 374, 219, 7, 263], [0, 0, 0, 0, 100, 9, 49, 7, 1, 263, 7, 219, 374, 219, 7, 263], [0, 0, 0, 0, 7, 100, 9, 49, 1, 263, 7, 219, 374, 219, 7, 263]]"
PBDB-T,NFBDT-F,-5.297714285714285,-3.4170000000000003,-5.43,-3.88,1.0,CF,_,25.0,PEDOT:PSS,PDIN,10.62,10.63,0.793,69.5,"[0, 0, 49, 7, 100, 9, 1, 264, 7, 219, 218, 221, 218, 219, 7, 264]","[[0, 0, 49, 7, 100, 9, 1, 264, 7, 219, 218, 221, 218, 219, 7, 264], [0, 0, 9, 49, 7, 100, 1, 264, 7, 219, 218, 221, 218, 219, 7, 264], [0, 0, 100, 9, 49, 7, 1, 264, 7, 219, 218, 221, 218, 219, 7, 264], [0, 0, 7, 100, 9, 49, 1, 264, 7, 219, 218, 221, 218, 219, 7, 264]]"
PBDB-T,NFBDT,-5.297714285714285,-3.4170000000000003,-5.400000000000001,-3.83,1.25,CF,_,25.0,PEDOT:PSS,PDIN,10.42,10.46,0.872,67.2,"[0, 0, 49, 7, 100, 9, 1, 222, 7, 219, 218, 221, 218, 219, 7, 222]","[[0, 0, 49, 7, 100, 9, 1, 222, 7, 219, 218, 221, 218, 219, 7, 222], [0, 0, 9, 49, 7, 100, 1, 222, 7, 219, 218, 221, 218, 219, 7, 222], [0, 0, 100, 9, 49, 7, 1, 222, 7, 219, 218, 221, 218, 219, 7, 222], [0, 0, 7, 100, 9, 49, 1, 222, 7, 219, 218, 221, 218, 219, 7, 222]]"
PBDB-T,IT-DM,-5.297714285714285,-3.4170000000000003,-5.515,-3.855,0.75,CB,_,160.0,PEDOT:PSS,PFN-Br,10.41,10.41,0.95,68.7,"[0, 0, 0, 0, 49, 7, 100, 9, 1, 340, 79, 219, 221, 219, 79, 340]","[[0, 0, 0, 0, 49, 7, 100, 9, 1, 340, 79, 219, 221, 219, 79, 340], [0, 0, 0, 0, 9, 49, 7, 100, 1, 340, 79, 219, 221, 219, 79, 340], [0, 0, 0, 0, 100, 9, 49, 7, 1, 340, 79, 219, 221, 219, 79, 340], [0, 0, 0, 0, 7, 100, 9, 49, 1, 340, 79, 219, 221, 219, 79, 340]]"
PBDB-T,SN6IC,-5.297714285714285,-3.4170000000000003,-5.38,-3.93,1.0,CB,DIO,25.0,PEDOT:PSS,C60-bissalt,9.6,9.58,0.88,66.0,"[0, 0, 0, 0, 49, 7, 100, 9, 1, 222, 7, 265, 79, 265, 7, 222]","[[0, 0, 0, 0, 49, 7, 100, 9, 1, 222, 7, 265, 79, 265, 7, 222], [0, 0, 0, 0, 9, 49, 7, 100, 1, 222, 7, 265, 79, 265, 7, 222], [0, 0, 0, 0, 100, 9, 49, 7, 1, 222, 7, 265, 79, 265, 7, 222], [0, 0, 0, 0, 7, 100, 9, 49, 1, 222, 7, 265, 79, 265, 7, 222]]"
PBDB-T,SN6IC-4F,-5.297714285714285,-3.4170000000000003,-5.52,-4.11,1.0,CB,DIO,25.0,PEDOT:PSS,C60-bissalt,13.2,13.21,0.78,73.0,"[0, 0, 0, 0, 49, 7, 100, 9, 1, 217, 7, 265, 79, 265, 7, 217]","[[0, 0, 0, 0, 49, 7, 100, 9, 1, 217, 7, 265, 79, 265, 7, 217], [0, 0, 0, 0, 9, 49, 7, 100, 1, 217, 7, 265, 79, 265, 7, 217], [0, 0, 0, 0, 100, 9, 49, 7, 1, 217, 7, 265, 79, 265, 7, 217], [0, 0, 0, 0, 7, 100, 9, 49, 1, 217, 7, 265, 79, 265, 7, 217]]"
PTB7-Th,ITIC,-5.204782608695651,-3.5391891891891896,-5.574146341463415,-3.915,0.5,CB,_,25.0,MoOx,ZnO,7.8,7.84,0.825,66.0,"[0, 0, 0, 0, 0, 0, 49, 101, 1, 222, 79, 219, 221, 219, 79, 222]","[[0, 0, 0, 0, 0, 0, 49, 101, 1, 222, 79, 219, 221, 219, 79, 222], [0, 0, 0, 0, 0, 0, 101, 49, 1, 222, 79, 219, 221, 219, 79, 222]]"
PTB7-Th,IDTT-T,-5.204782608695651,-3.5391891891891896,-5.51,-3.51,0.5,CB,_,25.0,MoOx,ZnO,9.1,9.08,1.015,57.0,"[0, 0, 0, 0, 0, 0, 49, 101, 1, 266, 79, 219, 221, 219, 79, 266]","[[0, 0, 0, 0, 0, 0, 49, 101, 1, 266, 79, 219, 221, 219, 79, 266], [0, 0, 0, 0, 0, 0, 101, 49, 1, 266, 79, 219, 221, 219, 79, 266]]"
PBDB-T,IDT-IC,-5.297714285714285,-3.4170000000000003,-5.693333333333334,-3.866666666666666,1.0,DCB,_,25.0,MoOx,ZnO,4.69,4.29,0.83,49.0,"[0, 0, 0, 0, 49, 7, 100, 9, 1, 222, 7, 219, 221, 219, 7, 222]","[[0, 0, 0, 0, 49, 7, 100, 9, 1, 222, 7, 219, 221, 219, 7, 222], [0, 0, 0, 0, 9, 49, 7, 100, 1, 222, 7, 219, 221, 219, 7, 222], [0, 0, 0, 0, 100, 9, 49, 7, 1, 222, 7, 219, 221, 219, 7, 222], [0, 0, 0, 0, 7, 100, 9, 49, 1, 222, 7, 219, 221, 219, 7, 222]]"
PBDB-T,O-NTIC,-5.297714285714285,-3.4170000000000003,-5.51,-3.67,1.25,CB,DIO,25.0,PEDOT:PSS,PDINO,9.1,9.1,0.978,69.9,"[0, 0, 0, 0, 49, 7, 100, 9, 1, 222, 7, 239, 267, 239, 7, 222]","[[0, 0, 0, 0, 49, 7, 100, 9, 1, 222, 7, 239, 267, 239, 7, 222], [0, 0, 0, 0, 9, 49, 7, 100, 1, 222, 7, 239, 267, 239, 7, 222], [0, 0, 0, 0, 100, 9, 49, 7, 1, 222, 7, 239, 267, 239, 7, 222], [0, 0, 0, 0, 7, 100, 9, 49, 1, 222, 7, 239, 267, 239, 7, 222]]"
PBDB-T,O-NTNC,-5.297714285714285,-3.4170000000000003,-5.54,-3.78,1.25,CB,DIO,25.0,PEDOT:PSS,PDINO,11.04,11.05,0.942,73.4,"[0, 0, 0, 0, 49, 7, 100, 9, 1, 237, 7, 239, 267, 239, 7, 237]","[[0, 0, 0, 0, 49, 7, 100, 9, 1, 237, 7, 239, 267, 239, 7, 237], [0, 0, 0, 0, 9, 49, 7, 100, 1, 237, 7, 239, 267, 239, 7, 237], [0, 0, 0, 0, 100, 9, 49, 7, 1, 237, 7, 239, 267, 239, 7, 237], [0, 0, 0, 0, 7, 100, 9, 49, 1, 237, 7, 239, 267, 239, 7, 237]]"
PBDB-T,BTTFIC,-5.297714285714285,-3.4170000000000003,-5.56,-3.95,1.5,o-DCB,_,130.0,MoOx,ZnO,9.0,9.01,0.935,54.3,"[0, 0, 49, 7, 100, 9, 1, 222, 79, 225, 221, 225, 221, 225, 79, 222]","[[0, 0, 49, 7, 100, 9, 1, 222, 79, 225, 221, 225, 221, 225, 79, 222], [0, 0, 9, 49, 7, 100, 1, 222, 79, 225, 221, 225, 221, 225, 79, 222], [0, 0, 100, 9, 49, 7, 1, 222, 79, 225, 221, 225, 221, 225, 79, 222], [0, 0, 7, 100, 9, 49, 1, 222, 79, 225, 221, 225, 221, 225, 79, 222]]"
PTB7-Th,BTTFIC,-5.204782608695651,-3.5391891891891896,-5.56,-3.95,0.5,o-DCB,_,130.0,MoOx,ZnO,8.47,8.46,0.871,55.0,"[0, 0, 0, 0, 49, 101, 1, 222, 79, 225, 221, 225, 221, 225, 79, 222]","[[0, 0, 0, 0, 49, 101, 1, 222, 79, 225, 221, 225, 221, 225, 79, 222], [0, 0, 0, 0, 101, 49, 1, 222, 79, 225, 221, 225, 221, 225, 79, 222]]"
PM6,IT-4F,-5.529999999999999,-3.555,-5.66875,-4.060416666666667,1.0,CB,DIO,100.0,MoOx,ZnO,13.5,13.52,0.84,72.5,"[0, 0, 0, 0, 99, 7, 100, 9, 1, 217, 79, 219, 221, 219, 79, 217]","[[0, 0, 0, 0, 99, 7, 100, 9, 1, 217, 79, 219, 221, 219, 79, 217], [0, 0, 0, 0, 9, 99, 7, 100, 1, 217, 79, 219, 221, 219, 79, 217], [0, 0, 0, 0, 100, 9, 99, 7, 1, 217, 79, 219, 221, 219, 79, 217], [0, 0, 0, 0, 7, 100, 9, 99, 1, 217, 79, 219, 221, 219, 79, 217]]"
PBDB-T,NFTI,-5.297714285714285,-3.4170000000000003,-5.46,-3.77,1.111,o-DCB,DPE,25.0,PEDOT:PSS,FPI,8.34,8.3,0.898,57.0,"[0, 0, 0, 0, 49, 7, 100, 9, 1, 222, 268, 221, 225, 221, 268, 222]","[[0, 0, 0, 0, 49, 7, 100, 9, 1, 222, 268, 221, 225, 221, 268, 222], [0, 0, 0, 0, 9, 49, 7, 100, 1, 222, 268, 221, 225, 221, 268, 222], [0, 0, 0, 0, 100, 9, 49, 7, 1, 222, 268, 221, 225, 221, 268, 222], [0, 0, 0, 0, 7, 100, 9, 49, 1, 222, 268, 221, 225, 221, 268, 222]]"
FTAZ,F5IC,-5.43,-3.3200000000000003,-5.82,-4.05,0.667,CF,DIO,25.0,MoOx,ZnO/PFN-Br,5.6,5.63,0.704,53.7,"[0, 0, 0, 0, 60, 7, 20, 9, 1, 217, 7, 219, 221, 219, 7, 217]","[[0, 0, 0, 0, 60, 7, 20, 9, 1, 217, 7, 219, 221, 219, 7, 217], [0, 0, 0, 0, 9, 60, 7, 20, 1, 217, 7, 219, 221, 219, 7, 217], [0, 0, 0, 0, 20, 9, 60, 7, 1, 217, 7, 219, 221, 219, 7, 217], [0, 0, 0, 0, 7, 20, 9, 60, 1, 217, 7, 219, 221, 219, 7, 217]]"
FTAZ,F7IC,-5.43,-3.3200000000000003,-5.74,-4.01,0.667,CF,DIO,25.0,MoOx,ZnO/PFN-Br,8.2,8.16,0.742,59.7,"[0, 0, 0, 0, 60, 7, 20, 9, 1, 217, 79, 219, 221, 219, 79, 217]","[[0, 0, 0, 0, 60, 7, 20, 9, 1, 217, 79, 219, 221, 219, 79, 217], [0, 0, 0, 0, 9, 60, 7, 20, 1, 217, 79, 219, 221, 219, 79, 217], [0, 0, 0, 0, 20, 9, 60, 7, 1, 217, 79, 219, 221, 219, 79, 217], [0, 0, 0, 0, 7, 20, 9, 60, 1, 217, 79, 219, 221, 219, 79, 217]]"
FTAZ,F9IC,-5.43,-3.3200000000000003,-5.52,-3.97,0.667,CF,DIO,25.0,MoOx,ZnO/PFN-Br,11.7,11.71,0.873,66.4,"[0, 0, 0, 0, 60, 7, 20, 9, 1, 217, 269, 219, 221, 219, 269, 217]","[[0, 0, 0, 0, 60, 7, 20, 9, 1, 217, 269, 219, 221, 219, 269, 217], [0, 0, 0, 0, 9, 60, 7, 20, 1, 217, 269, 219, 221, 219, 269, 217], [0, 0, 0, 0, 20, 9, 60, 7, 1, 217, 269, 219, 221, 219, 269, 217], [0, 0, 0, 0, 7, 20, 9, 60, 1, 217, 269, 219, 221, 219, 269, 217]]"
PBDTTz-SBP,ITIC,-5.46,-3.5,-5.574146341463415,-3.915,1.0,CB,_,25.0,PEDOT:PSS,PFN-Br,12.09,12.09,0.914,71.43,"[0, 0, 0, 0, 181, 7, 8, 9, 1, 222, 79, 219, 221, 219, 79, 222]","[[0, 0, 0, 0, 181, 7, 8, 9, 1, 222, 79, 219, 221, 219, 79, 222], [0, 0, 0, 0, 9, 181, 7, 8, 1, 222, 79, 219, 221, 219, 79, 222], [0, 0, 0, 0, 8, 9, 181, 7, 1, 222, 79, 219, 221, 219, 79, 222], [0, 0, 0, 0, 7, 8, 9, 181, 1, 222, 79, 219, 221, 219, 79, 222]]"
PBDTTz-BP,ITIC,-5.025,-2.97,-5.574146341463415,-3.915,1.0,CB,_,25.0,PEDOT:PSS,PFN-Br,9.2,9.2,0.832,61.56,"[0, 0, 0, 0, 167, 7, 20, 9, 1, 222, 79, 219, 221, 219, 79, 222]","[[0, 0, 0, 0, 167, 7, 20, 9, 1, 222, 79, 219, 221, 219, 79, 222], [0, 0, 0, 0, 9, 167, 7, 20, 1, 222, 79, 219, 221, 219, 79, 222], [0, 0, 0, 0, 20, 9, 167, 7, 1, 222, 79, 219, 221, 219, 79, 222], [0, 0, 0, 0, 7, 20, 9, 167, 1, 222, 79, 219, 221, 219, 79, 222]]"
PJ1,m-ITIC,-5.38,-3.38,-5.526666666666667,-3.8515384615384622,0.667,CF,DIO,130.0,PEDOT:PSS,PDINO,6.41,6.41,1.031,56.0,"[0, 0, 0, 0, 6, 44, 118, 182, 1, 222, 79, 228, 221, 228, 79, 222]","[[0, 0, 0, 0, 6, 44, 118, 182, 1, 222, 79, 228, 221, 228, 79, 222], [0, 0, 0, 0, 182, 6, 44, 118, 1, 222, 79, 228, 221, 228, 79, 222], [0, 0, 0, 0, 118, 182, 6, 44, 1, 222, 79, 228, 221, 228, 79, 222], [0, 0, 0, 0, 44, 118, 182, 6, 1, 222, 79, 228, 221, 228, 79, 222]]"
PJ1,IDIC,-5.38,-3.38,-5.706,-4.002666666666667,0.667,CF,DIO,130.0,PEDOT:PSS,PDINO,6.18,6.16,0.958,53.6,"[0, 0, 0, 0, 6, 44, 118, 182, 1, 222, 7, 234, 221, 234, 7, 222]","[[0, 0, 0, 0, 6, 44, 118, 182, 1, 222, 7, 234, 221, 234, 7, 222], [0, 0, 0, 0, 182, 6, 44, 118, 1, 222, 7, 234, 221, 234, 7, 222], [0, 0, 0, 0, 118, 182, 6, 44, 1, 222, 7, 234, 221, 234, 7, 222], [0, 0, 0, 0, 44, 118, 182, 6, 1, 222, 7, 234, 221, 234, 7, 222]]"
PJ2,m-ITIC,-5.14,-3.33,-5.526666666666667,-3.8515384615384622,0.667,CF,DIO,130.0,PEDOT:PSS,PDINO,10.34,10.34,0.988,62.3,"[0, 0, 0, 0, 6, 7, 100, 9, 1, 222, 79, 228, 221, 228, 79, 222]","[[0, 0, 0, 0, 6, 7, 100, 9, 1, 222, 79, 228, 221, 228, 79, 222], [0, 0, 0, 0, 9, 6, 7, 100, 1, 222, 79, 228, 221, 228, 79, 222], [0, 0, 0, 0, 100, 9, 6, 7, 1, 222, 79, 228, 221, 228, 79, 222], [0, 0, 0, 0, 7, 100, 9, 6, 1, 222, 79, 228, 221, 228, 79, 222]]"