Donor,Acceptor,HOMO_D_eV,LUMO_D_eV,HOMO_A_eV,LUMO_A_eV,D_A_ratio_m_m,solvent,solvent_additive,annealing_temperature,hole_contact_layer,electron_contact_layer,PCE_percent,calc_PCE_percent,Voc_V,FF_percent,DA_manual_tokenized,DA_manual_tokenized_aug
PJ2,IDIC,-5.14,-3.33,-5.706,-4.002666666666667,0.667,CF,DIO,130.0,PEDOT:PSS,PDINO,12.01,12.02,0.939,75.3,"[0, 0, 0, 0, 6, 7, 100, 9, 1, 222, 7, 234, 221, 234, 7, 222]","[[0, 0, 0, 0, 6, 7, 100, 9, 1, 222, 7, 234, 221, 234, 7, 222], [0, 0, 0, 0, 9, 6, 7, 100, 1, 222, 7, 234, 221, 234, 7, 222], [0, 0, 0, 0, 100, 9, 6, 7, 1, 222, 7, 234, 221, 234, 7, 222], [0, 0, 0, 0, 7, 100, 9, 6, 1, 222, 7, 234, 221, 234, 7, 222]]"
PJ3,m-ITIC,-5.01,-3.26,-5.526666666666667,-3.8515384615384622,0.667,CF,DIO,130.0,PEDOT:PSS,PDINO,7.76,7.74,0.96,63.5,"[0, 0, 0, 0, 6, 68, 22, 69, 1, 222, 79, 228, 221, 228, 79, 222]","[[0, 0, 0, 0, 6, 68, 22, 69, 1, 222, 79, 228, 221, 228, 79, 222], [0, 0, 0, 0, 69, 6, 68, 22, 1, 222, 79, 228, 221, 228, 79, 222], [0, 0, 0, 0, 22, 69, 6, 68, 1, 222, 79, 228, 221, 228, 79, 222], [0, 0, 0, 0, 68, 22, 69, 6, 1, 222, 79, 228, 221, 228, 79, 222]]"
PJ3,IDIC,-5.01,-3.26,-5.706,-4.002666666666667,0.667,CF,DIO,130.0,PEDOT:PSS,PDINO,8.11,8.11,0.908,69.8,"[0, 0, 0, 0, 6, 68, 22, 69, 1, 222, 7, 234, 221, 234, 7, 222]","[[0, 0, 0, 0, 6, 68, 22, 69, 1, 222, 7, 234, 221, 234, 7, 222], [0, 0, 0, 0, 69, 6, 68, 22, 1, 222, 7, 234, 221, 234, 7, 222], [0, 0, 0, 0, 22, 69, 6, 68, 1, 222, 7, 234, 221, 234, 7, 222], [0, 0, 0, 0, 68, 22, 69, 6, 1, 222, 7, 234, 221, 234, 7, 222]]"
2D-PBTCl,ITIC,-5.45,-3.6,-5.574146341463415,-3.915,1.0,CB,DIO,25.0,MoOx,ZnO,8.81,8.81,0.91,61.32,"[0, 0, 0, 0, 0, 0, 49, 183, 1, 222, 79, 219, 221, 219, 79, 222]","[[0, 0, 0, 0, 0, 0, 49, 183, 1, 222, 79, 219, 221, 219, 79, 222], [0, 0, 0, 0, 0, 0, 183, 49, 1, 222, 79, 219, 221, 219, 79, 222]]"
2D-PBTCl2,ITIC,-5.43,-3.63,-5.574146341463415,-3.915,1.0,CB,DIO,25.0,MoOx,ZnO,7.38,7.38,0.87,58.43,"[0, 0, 0, 0, 0, 0, 49, 184, 1, 222, 79, 219, 221, 219, 79, 222]","[[0, 0, 0, 0, 0, 0, 49, 184, 1, 222, 79, 219, 221, 219, 79, 222], [0, 0, 0, 0, 0, 0, 184, 49, 1, 222, 79, 219, 221, 219, 79, 222]]"
PTB7-Th,ITIC,-5.204782608695651,-3.5391891891891896,-5.574146341463415,-3.915,1.0,CB,DIO,25.0,MoOx,ZnO,6.91,6.91,0.82,57.09,"[0, 0, 0, 0, 0, 0, 49, 101, 1, 222, 79, 219, 221, 219, 79, 222]","[[0, 0, 0, 0, 0, 0, 49, 101, 1, 222, 79, 219, 221, 219, 79, 222], [0, 0, 0, 0, 0, 0, 101, 49, 1, 222, 79, 219, 221, 219, 79, 222]]"
PBClT,ITIC,-5.47,-3.61,-5.574146341463415,-3.915,1.0,CB,_,25.0,MoOx,ZnO,8.46,8.46,1.01,60.05,"[0, 0, 0, 0, 0, 0, 138, 101, 1, 222, 79, 219, 221, 219, 79, 222]","[[0, 0, 0, 0, 0, 0, 138, 101, 1, 222, 79, 219, 221, 219, 79, 222], [0, 0, 0, 0, 0, 0, 101, 138, 1, 222, 79, 219, 221, 219, 79, 222]]"
PBDB-T,BDCPDT-IC,-5.297714285714285,-3.4170000000000003,-5.41,-3.87,1.0,CB,DIO,25.0,MoOx,ZnO,9.33,9.33,0.86,65.52,"[0, 0, 49, 7, 100, 9, 1, 222, 7, 219, 218, 221, 218, 219, 7, 222]","[[0, 0, 49, 7, 100, 9, 1, 222, 7, 219, 218, 221, 218, 219, 7, 222], [0, 0, 9, 49, 7, 100, 1, 222, 7, 219, 218, 221, 218, 219, 7, 222], [0, 0, 100, 9, 49, 7, 1, 222, 7, 219, 218, 221, 218, 219, 7, 222], [0, 0, 7, 100, 9, 49, 1, 222, 7, 219, 218, 221, 218, 219, 7, 222]]"
PBDB-T,BDCPDT-FIC,-5.297714285714285,-3.4170000000000003,-5.52,-4.0,1.0,CB,_,25.0,MoOx,ZnO,8.12,8.12,0.7,60.67,"[0, 0, 49, 7, 100, 9, 1, 217, 7, 219, 218, 221, 218, 219, 7, 217]","[[0, 0, 49, 7, 100, 9, 1, 217, 7, 219, 218, 221, 218, 219, 7, 217], [0, 0, 9, 49, 7, 100, 1, 217, 7, 219, 218, 221, 218, 219, 7, 217], [0, 0, 100, 9, 49, 7, 1, 217, 7, 219, 218, 221, 218, 219, 7, 217], [0, 0, 7, 100, 9, 49, 1, 217, 7, 219, 218, 221, 218, 219, 7, 217]]"
PBFTT,ITIC,-5.47,-3.56,-5.574146341463415,-3.915,0.667,CB,_,25.0,MoOx,ZnO,9.1,9.1,0.94,60.5,"[0, 0, 0, 0, 0, 0, 99, 213, 1, 222, 79, 219, 221, 219, 79, 222]","[[0, 0, 0, 0, 0, 0, 99, 213, 1, 222, 79, 219, 221, 219, 79, 222], [0, 0, 0, 0, 0, 0, 213, 99, 1, 222, 79, 219, 221, 219, 79, 222]]"
PBDB-O,ITIC,-5.3,-2.82,-5.574146341463415,-3.915,1.0,CB,DIO,160.0,MoOx,ZnO,4.35,4.32,0.846,43.3,"[0, 0, 0, 0, 37, 7, 100, 9, 1, 222, 79, 219, 221, 219, 79, 222]","[[0, 0, 0, 0, 37, 7, 100, 9, 1, 222, 79, 219, 221, 219, 79, 222], [0, 0, 0, 0, 9, 37, 7, 100, 1, 222, 79, 219, 221, 219, 79, 222], [0, 0, 0, 0, 100, 9, 37, 7, 1, 222, 79, 219, 221, 219, 79, 222], [0, 0, 0, 0, 7, 100, 9, 37, 1, 222, 79, 219, 221, 219, 79, 222]]"
PBDB-T,BDTIT-M,-5.297714285714285,-3.4170000000000003,-5.4,-3.85,1.0,CB,DIO,100.0,PEDOT:PSS,PDIN,11.31,11.31,0.903,71.3,"[0, 0, 49, 7, 100, 9, 1, 230, 7, 219, 218, 330, 218, 219, 7, 230]","[[0, 0, 49, 7, 100, 9, 1, 230, 7, 219, 218, 330, 218, 219, 7, 230], [0, 0, 9, 49, 7, 100, 1, 230, 7, 219, 218, 330, 218, 219, 7, 230], [0, 0, 100, 9, 49, 7, 1, 230, 7, 219, 218, 330, 218, 219, 7, 230], [0, 0, 7, 100, 9, 49, 1, 230, 7, 219, 218, 330, 218, 219, 7, 230]]"
PBDB-T,BDTThIT-M,-5.297714285714285,-3.4170000000000003,-5.35,-3.82,1.0,CB,DIO,100.0,PEDOT:PSS,PDIN,12.12,12.13,0.942,71.4,"[0, 0, 49, 7, 100, 9, 1, 230, 7, 219, 218, 221, 218, 219, 7, 230]","[[0, 0, 49, 7, 100, 9, 1, 230, 7, 219, 218, 221, 218, 219, 7, 230], [0, 0, 9, 49, 7, 100, 1, 230, 7, 219, 218, 221, 218, 219, 7, 230], [0, 0, 100, 9, 49, 7, 1, 230, 7, 219, 218, 221, 218, 219, 7, 230], [0, 0, 7, 100, 9, 49, 1, 230, 7, 219, 218, 221, 218, 219, 7, 230]]"
PBZ,ITIC,-5.18,-3.22,-5.574146341463415,-3.915,0.8,CB,_,25.0,MoOx,ZnO,8.0,8.02,0.79,59.0,"[0, 0, 0, 0, 49, 7, 8, 9, 1, 222, 79, 219, 221, 219, 79, 222]","[[0, 0, 0, 0, 49, 7, 8, 9, 1, 222, 79, 219, 221, 219, 79, 222], [0, 0, 0, 0, 9, 49, 7, 8, 1, 222, 79, 219, 221, 219, 79, 222], [0, 0, 0, 0, 8, 9, 49, 7, 1, 222, 79, 219, 221, 219, 79, 222], [0, 0, 0, 0, 7, 8, 9, 49, 1, 222, 79, 219, 221, 219, 79, 222]]"
PFBZ,ITIC,-5.36,-3.42,-5.574146341463415,-3.915,0.8,CB,_,25.0,MoOx,ZnO,10.4,10.37,0.89,62.0,"[0, 0, 0, 0, 99, 7, 8, 9, 1, 222, 79, 219, 221, 219, 79, 222]","[[0, 0, 0, 0, 99, 7, 8, 9, 1, 222, 79, 219, 221, 219, 79, 222], [0, 0, 0, 0, 9, 99, 7, 8, 1, 222, 79, 219, 221, 219, 79, 222], [0, 0, 0, 0, 8, 9, 99, 7, 1, 222, 79, 219, 221, 219, 79, 222], [0, 0, 0, 0, 7, 8, 9, 99, 1, 222, 79, 219, 221, 219, 79, 222]]"
J51,ITIC,-5.24,-3.056666666666666,-5.574146341463415,-3.915,0.5,CF,_,25.0,PEDOT:PSS,PDINO,7.03,7.21,0.84,61.0,"[0, 0, 0, 0, 2, 7, 17, 9, 1, 222, 79, 219, 221, 219, 79, 222]","[[0, 0, 0, 0, 2, 7, 17, 9, 1, 222, 79, 219, 221, 219, 79, 222], [0, 0, 0, 0, 9, 2, 7, 17, 1, 222, 79, 219, 221, 219, 79, 222], [0, 0, 0, 0, 17, 9, 2, 7, 1, 222, 79, 219, 221, 219, 79, 222], [0, 0, 0, 0, 7, 17, 9, 2, 1, 222, 79, 219, 221, 219, 79, 222]]"
J60,ITIC,-5.32,-3.08,-5.574146341463415,-3.915,1.0,CF,_,25.0,PEDOT:PSS,PDINO,5.17,5.17,0.92,57.45,"[0, 0, 0, 0, 14, 7, 8, 9, 1, 222, 79, 219, 221, 219, 79, 222]","[[0, 0, 0, 0, 14, 7, 8, 9, 1, 222, 79, 219, 221, 219, 79, 222], [0, 0, 0, 0, 9, 14, 7, 8, 1, 222, 79, 219, 221, 219, 79, 222], [0, 0, 0, 0, 8, 9, 14, 7, 1, 222, 79, 219, 221, 219, 79, 222], [0, 0, 0, 0, 7, 8, 9, 14, 1, 222, 79, 219, 221, 219, 79, 222]]"
J61,ITIC,-5.303333333333334,-3.151666666666667,-5.574146341463415,-3.915,1.0,CF,_,25.0,PEDOT:PSS,PDINO,9.15,9.05,0.91,66.55,"[0, 0, 0, 0, 13, 7, 8, 9, 1, 222, 79, 219, 221, 219, 79, 222]","[[0, 0, 0, 0, 13, 7, 8, 9, 1, 222, 79, 219, 221, 219, 79, 222], [0, 0, 0, 0, 9, 13, 7, 8, 1, 222, 79, 219, 221, 219, 79, 222], [0, 0, 0, 0, 8, 9, 13, 7, 1, 222, 79, 219, 221, 219, 79, 222], [0, 0, 0, 0, 7, 8, 9, 13, 1, 222, 79, 219, 221, 219, 79, 222]]"
PTB7,IEICO-4F,-5.175,-3.435,-5.309971428571429,-3.851028571428572,0.667,CB,DIO,25.0,PEDOT:PSS,PFN-Br,2.3,2.3,0.54,28.92,"[0, 0, 0, 0, 37, 101, 1, 217, 229, 7, 219, 221, 219, 7, 229, 217]","[[0, 0, 0, 0, 37, 101, 1, 217, 229, 7, 219, 221, 219, 7, 229, 217], [0, 0, 0, 0, 101, 37, 1, 217, 229, 7, 219, 221, 219, 7, 229, 217]]"
PTB7-Th,IEICO-4F,-5.204782608695651,-3.5391891891891896,-5.309971428571429,-3.851028571428572,0.667,CB,CN,25.0,PEDOT:PSS,PFN-Br,11.6,11.6,0.72,69.41,"[0, 0, 0, 0, 49, 101, 1, 217, 229, 7, 219, 221, 219, 7, 229, 217]","[[0, 0, 0, 0, 49, 101, 1, 217, 229, 7, 219, 221, 219, 7, 229, 217], [0, 0, 0, 0, 101, 49, 1, 217, 229, 7, 219, 221, 219, 7, 229, 217]]"
PBO,ITIC,-5.47,-3.67,-5.574146341463415,-3.915,0.5,DCB,DIO,25.0,PEDOT:PSS,LiF,7.1,7.1,0.92,54.0,"[0, 0, 0, 0, 134, 7, 185, 9, 1, 222, 79, 219, 221, 219, 79, 222]","[[0, 0, 0, 0, 134, 7, 185, 9, 1, 222, 79, 219, 221, 219, 79, 222], [0, 0, 0, 0, 9, 134, 7, 185, 1, 222, 79, 219, 221, 219, 79, 222], [0, 0, 0, 0, 185, 9, 134, 7, 1, 222, 79, 219, 221, 219, 79, 222], [0, 0, 0, 0, 7, 185, 9, 134, 1, 222, 79, 219, 221, 219, 79, 222]]"
PBDB-T,TTIC-M,-5.297714285714285,-3.4170000000000003,-5.49,-4.03,1.0,CB,_,25.0,PEDOT:PSS,PDINO,9.85,9.97,0.83,63.0,"[0, 0, 0, 0, 49, 7, 100, 9, 1, 230, 7, 219, 79, 219, 7, 230]","[[0, 0, 0, 0, 49, 7, 100, 9, 1, 230, 7, 219, 79, 219, 7, 230], [0, 0, 0, 0, 9, 49, 7, 100, 1, 230, 7, 219, 79, 219, 7, 230], [0, 0, 0, 0, 100, 9, 49, 7, 1, 230, 7, 219, 79, 219, 7, 230], [0, 0, 0, 0, 7, 100, 9, 49, 1, 230, 7, 219, 79, 219, 7, 230]]"
PBDB-T,TTIC,-5.297714285714285,-3.4170000000000003,-5.54,-4.109999999999999,1.0,CB,_,25.0,PEDOT:PSS,PDINO,10.73,10.87,0.8,66.0,"[0, 0, 0, 0, 49, 7, 100, 9, 1, 222, 7, 219, 79, 219, 7, 222]","[[0, 0, 0, 0, 49, 7, 100, 9, 1, 222, 7, 219, 79, 219, 7, 222], [0, 0, 0, 0, 9, 49, 7, 100, 1, 222, 7, 219, 79, 219, 7, 222], [0, 0, 0, 0, 100, 9, 49, 7, 1, 222, 7, 219, 79, 219, 7, 222], [0, 0, 0, 0, 7, 100, 9, 49, 1, 222, 7, 219, 79, 219, 7, 222]]"
PBDB-T,TTIC-F,-5.297714285714285,-3.4170000000000003,-5.34,-3.88,1.0,CB,_,25.0,PEDOT:PSS,PDINO,9.38,9.51,0.71,63.0,"[0, 0, 0, 0, 49, 7, 100, 9, 1, 264, 7, 219, 79, 219, 7, 264]","[[0, 0, 0, 0, 49, 7, 100, 9, 1, 264, 7, 219, 79, 219, 7, 264], [0, 0, 0, 0, 9, 49, 7, 100, 1, 264, 7, 219, 79, 219, 7, 264], [0, 0, 0, 0, 100, 9, 49, 7, 1, 264, 7, 219, 79, 219, 7, 264], [0, 0, 0, 0, 7, 100, 9, 49, 1, 264, 7, 219, 79, 219, 7, 264]]"
J71,ITIC,-5.353333333333333,-3.4318181818181825,-5.574146341463415,-3.915,0.8,CB,_,25.0,MoOx,ZnO,9.03,9.05,0.96,63.63,"[0, 0, 0, 0, 6, 7, 8, 9, 1, 222, 79, 219, 221, 219, 79, 222]","[[0, 0, 0, 0, 6, 7, 8, 9, 1, 222, 79, 219, 221, 219, 79, 222], [0, 0, 0, 0, 9, 6, 7, 8, 1, 222, 79, 219, 221, 219, 79, 222], [0, 0, 0, 0, 8, 9, 6, 7, 1, 222, 79, 219, 221, 219, 79, 222], [0, 0, 0, 0, 7, 8, 9, 6, 1, 222, 79, 219, 221, 219, 79, 222]]"
FTAZ,ITIC,-5.43,-3.3200000000000003,-5.574146341463415,-3.915,0.667,CF,_,25.0,MoOx,ZnO,8.77,8.83,0.911,58.0,"[0, 0, 0, 0, 60, 7, 20, 9, 1, 222, 79, 219, 221, 219, 79, 222]","[[0, 0, 0, 0, 60, 7, 20, 9, 1, 222, 79, 219, 221, 219, 79, 222], [0, 0, 0, 0, 9, 60, 7, 20, 1, 222, 79, 219, 221, 219, 79, 222], [0, 0, 0, 0, 20, 9, 60, 7, 1, 222, 79, 219, 221, 219, 79, 222], [0, 0, 0, 0, 7, 20, 9, 60, 1, 222, 79, 219, 221, 219, 79, 222]]"
HTAZ,ITIC,-5.42,-3.44,-5.574146341463415,-3.915,0.667,CF,_,25.0,MoOx,ZnO,4.5,4.52,0.851,40.8,"[0, 0, 0, 0, 186, 7, 187, 9, 1, 222, 79, 219, 221, 219, 79, 222]","[[0, 0, 0, 0, 186, 7, 187, 9, 1, 222, 79, 219, 221, 219, 79, 222], [0, 0, 0, 0, 9, 186, 7, 187, 1, 222, 79, 219, 221, 219, 79, 222], [0, 0, 0, 0, 187, 9, 186, 7, 1, 222, 79, 219, 221, 219, 79, 222], [0, 0, 0, 0, 7, 187, 9, 186, 1, 222, 79, 219, 221, 219, 79, 222]]"
PTB7-Th,IFT-ECA,-5.204782608695651,-3.5391891891891896,-5.62,-3.58,0.667,DCB,CN,25.0,MoOx,ZnO,0.03,0.04,0.76,23.6,"[0, 0, 0, 0, 49, 101, 1, 256, 7, 221, 234, 221, 234, 221, 7, 256]","[[0, 0, 0, 0, 49, 101, 1, 256, 7, 221, 234, 221, 234, 221, 7, 256], [0, 0, 0, 0, 101, 49, 1, 256, 7, 221, 234, 221, 234, 221, 7, 256]]"
PTB7-Th,IFT-M,-5.204782608695651,-3.5391891891891896,-5.83,-3.65,0.667,DCB,CN,25.0,MoOx,ZnO,0.15,0.15,0.76,24.9,"[0, 0, 0, 0, 49, 101, 1, 305, 7, 221, 234, 221, 234, 221, 7, 305]","[[0, 0, 0, 0, 49, 101, 1, 305, 7, 221, 234, 221, 234, 221, 7, 305], [0, 0, 0, 0, 101, 49, 1, 305, 7, 221, 234, 221, 234, 221, 7, 305]]"
PTB7-Th,IFT-IC,-5.204782608695651,-3.5391891891891896,-5.7,-3.87,0.667,DCB,CN,25.0,MoOx,ZnO,4.14,4.14,1.03,50.3,"[0, 0, 0, 0, 49, 101, 1, 222, 7, 221, 234, 221, 234, 221, 7, 222]","[[0, 0, 0, 0, 49, 101, 1, 222, 7, 221, 234, 221, 234, 221, 7, 222], [0, 0, 0, 0, 101, 49, 1, 222, 7, 221, 234, 221, 234, 221, 7, 222]]"
PTB7-Th,IFT-TH,-5.204782608695651,-3.5391891891891896,-5.85,-3.67,0.667,DCB,CN,25.0,MoOx,ZnO,7.16,7.15,0.9,60.2,"[0, 0, 0, 0, 49, 101, 1, 266, 7, 221, 234, 221, 234, 221, 7, 266]","[[0, 0, 0, 0, 49, 101, 1, 266, 7, 221, 234, 221, 234, 221, 7, 266], [0, 0, 0, 0, 101, 49, 1, 266, 7, 221, 234, 221, 234, 221, 7, 266]]"
PBDB-T,IT-M,-5.297714285714285,-3.4170000000000003,-5.513571428571429,-3.808,1.0,CB,DIO,25.0,PEDOT:PSS,PFN-Br,11.5,11.23,0.961,70.0,"[0, 0, 0, 0, 49, 7, 100, 9, 1, 230, 79, 219, 221, 219, 79, 230]","[[0, 0, 0, 0, 49, 7, 100, 9, 1, 230, 79, 219, 221, 219, 79, 230], [0, 0, 0, 0, 9, 49, 7, 100, 1, 230, 79, 219, 221, 219, 79, 230], [0, 0, 0, 0, 100, 9, 49, 7, 1, 230, 79, 219, 221, 219, 79, 230], [0, 0, 0, 0, 7, 100, 9, 49, 1, 230, 79, 219, 221, 219, 79, 230]]"
PTB7-Th,4TIC,-5.204782608695651,-3.5391891891891896,-5.28,-3.87,0.5,CB,DIO,25.0,PEDOT:PSS,C60-bissalt,10.43,10.56,0.78,72.0,"[0, 0, 0, 0, 0, 0, 49, 101, 1, 222, 7, 219, 79, 219, 7, 222]","[[0, 0, 0, 0, 0, 0, 49, 101, 1, 222, 7, 219, 79, 219, 7, 222], [0, 0, 0, 0, 0, 0, 101, 49, 1, 222, 7, 219, 79, 219, 7, 222]]"
PTB7-Th,ITIC,-5.204782608695651,-3.5391891891891896,-5.574146341463415,-3.915,0.8,CB,_,25.0,PEDOT:PSS,C60-bissalt,7.28,7.18,0.83,57.0,"[0, 0, 0, 0, 0, 0, 49, 101, 1, 222, 79, 219, 221, 219, 79, 222]","[[0, 0, 0, 0, 0, 0, 49, 101, 1, 222, 79, 219, 221, 219, 79, 222], [0, 0, 0, 0, 0, 0, 101, 49, 1, 222, 79, 219, 221, 219, 79, 222]]"
TBF-BDD,ITIC,-5.37,-3.65,-5.574146341463415,-3.915,1.0,CF,_,110.0,PEDOT:PSS,PDINO,7.13,7.11,0.85,56.0,"[0, 0, 0, 0, 188, 7, 100, 9, 1, 222, 79, 219, 221, 219, 79, 222]","[[0, 0, 0, 0, 188, 7, 100, 9, 1, 222, 79, 219, 221, 219, 79, 222], [0, 0, 0, 0, 9, 188, 7, 100, 1, 222, 79, 219, 221, 219, 79, 222], [0, 0, 0, 0, 100, 9, 188, 7, 1, 222, 79, 219, 221, 219, 79, 222], [0, 0, 0, 0, 7, 100, 9, 188, 1, 222, 79, 219, 221, 219, 79, 222]]"
TBF-BT,ITIC,-5.4,-3.55,-5.574146341463415,-3.915,1.0,CF,_,110.0,PEDOT:PSS,PDINO,7.03,7.09,0.81,63.0,"[0, 0, 0, 0, 188, 7, 38, 9, 1, 222, 79, 219, 221, 219, 79, 222]","[[0, 0, 0, 0, 188, 7, 38, 9, 1, 222, 79, 219, 221, 219, 79, 222], [0, 0, 0, 0, 9, 188, 7, 38, 1, 222, 79, 219, 221, 219, 79, 222], [0, 0, 0, 0, 38, 9, 188, 7, 1, 222, 79, 219, 221, 219, 79, 222], [0, 0, 0, 0, 7, 38, 9, 188, 1, 222, 79, 219, 221, 219, 79, 222]]"
PBT,CzC6C8,-5.43,-3.65,-5.79,-3.79,0.333,CB,_,130.0,MoOx,ZnO,3.3,3.34,0.99,41.0,"[0, 0, 0, 0, 134, 7, 74, 9, 1, 240, 56, 221, 331, 221, 56, 240]","[[0, 0, 0, 0, 134, 7, 74, 9, 1, 240, 56, 221, 331, 221, 56, 240], [0, 0, 0, 0, 9, 134, 7, 74, 1, 240, 56, 221, 331, 221, 56, 240], [0, 0, 0, 0, 74, 9, 134, 7, 1, 240, 56, 221, 331, 221, 56, 240], [0, 0, 0, 0, 7, 74, 9, 134, 1, 240, 56, 221, 331, 221, 56, 240]]"
PBT,CZC8,-5.43,-3.65,-5.72,-3.74,0.333,CB,_,130.0,MoOx,ZnO,4.64,4.64,1.03,50.0,"[0, 0, 0, 0, 0, 0, 134, 7, 74, 9, 1, 240, 56, 375, 56, 240]","[[0, 0, 0, 0, 0, 0, 134, 7, 74, 9, 1, 240, 56, 375, 56, 240], [0, 0, 0, 0, 0, 0, 9, 134, 7, 74, 1, 240, 56, 375, 56, 240], [0, 0, 0, 0, 0, 0, 74, 9, 134, 7, 1, 240, 56, 375, 56, 240], [0, 0, 0, 0, 0, 0, 7, 74, 9, 134, 1, 240, 56, 375, 56, 240]]"
PTB7-Th,CZC8,-5.204782608695651,-3.5391891891891896,-5.72,-3.74,0.333,CB,_,100.0,MoOx,ZnO,4.91,4.96,0.98,45.0,"[0, 0, 0, 0, 0, 0, 0, 0, 49, 101, 1, 240, 56, 375, 56, 240]","[[0, 0, 0, 0, 0, 0, 0, 0, 49, 101, 1, 240, 56, 375, 56, 240], [0, 0, 0, 0, 0, 0, 0, 0, 101, 49, 1, 240, 56, 375, 56, 240]]"
PTFBDT,CZC8,-5.5,-3.69,-5.72,-3.74,0.333,CB,_,150.0,MoOx,ZnO,4.67,4.73,1.16,51.0,"[0, 0, 0, 0, 0, 0, 189, 7, 74, 9, 1, 240, 56, 375, 56, 240]","[[0, 0, 0, 0, 0, 0, 189, 7, 74, 9, 1, 240, 56, 375, 56, 240], [0, 0, 0, 0, 0, 0, 9, 189, 7, 74, 1, 240, 56, 375, 56, 240], [0, 0, 0, 0, 0, 0, 74, 9, 189, 7, 1, 240, 56, 375, 56, 240], [0, 0, 0, 0, 0, 0, 7, 74, 9, 189, 1, 240, 56, 375, 56, 240]]"
PBDB-T,IDTC,-5.297714285714285,-3.4170000000000003,-5.29,-3.37,1.0,CF,_,160.0,PEDOT:PSS,PDINO,9.35,9.36,0.917,61.61,"[0, 0, 49, 7, 100, 9, 1, 255, 64, 7, 219, 221, 219, 7, 64, 255]","[[0, 0, 49, 7, 100, 9, 1, 255, 64, 7, 219, 221, 219, 7, 64, 255], [0, 0, 9, 49, 7, 100, 1, 255, 64, 7, 219, 221, 219, 7, 64, 255], [0, 0, 100, 9, 49, 7, 1, 255, 64, 7, 219, 221, 219, 7, 64, 255], [0, 0, 7, 100, 9, 49, 1, 255, 64, 7, 219, 221, 219, 7, 64, 255]]"
PBDB-T,IDTO,-5.297714285714285,-3.4170000000000003,-5.11,-3.38,1.0,CF,_,160.0,PEDOT:PSS,PDINO,10.02,10.02,0.943,65.41,"[0, 0, 49, 7, 100, 9, 1, 255, 229, 7, 219, 221, 219, 7, 229, 255]","[[0, 0, 49, 7, 100, 9, 1, 255, 229, 7, 219, 221, 219, 7, 229, 255], [0, 0, 9, 49, 7, 100, 1, 255, 229, 7, 219, 221, 219, 7, 229, 255], [0, 0, 100, 9, 49, 7, 1, 255, 229, 7, 219, 221, 219, 7, 229, 255], [0, 0, 7, 100, 9, 49, 1, 255, 229, 7, 219, 221, 219, 7, 229, 255]]"
PTB7-Th,BTA7,-5.204782608695651,-3.5391891891891896,-5.56,-3.66,0.5,CF,DPE,80.0,PEDOT:PSS,Ca,4.6,4.6,1.05,42.0,"[0, 0, 0, 0, 49, 101, 1, 305, 18, 7, 219, 221, 219, 7, 18, 305]","[[0, 0, 0, 0, 49, 101, 1, 305, 18, 7, 219, 221, 219, 7, 18, 305], [0, 0, 0, 0, 101, 49, 1, 305, 18, 7, 219, 221, 219, 7, 18, 305]]"
PTB7-Th,BTA1,-5.204782608695651,-3.5391891891891896,-5.510000000000001,-3.5499999999999994,0.5,CF,DPE,80.0,PEDOT:PSS,Ca,0.06,0.05,0.93,29.0,"[0, 0, 0, 0, 49, 101, 1, 240, 18, 7, 219, 221, 219, 7, 18, 240]","[[0, 0, 0, 0, 49, 101, 1, 240, 18, 7, 219, 221, 219, 7, 18, 240], [0, 0, 0, 0, 101, 49, 1, 240, 18, 7, 219, 221, 219, 7, 18, 240]]"
PTB7-Th,BTA2,-5.204782608695651,-3.5391891891891896,-5.43,-3.3800000000000003,0.5,CF,DPE,80.0,PEDOT:PSS,Ca,0.01,0.01,1.01,27.0,"[0, 0, 0, 0, 49, 101, 1, 333, 18, 7, 219, 221, 219, 7, 18, 333]","[[0, 0, 0, 0, 49, 101, 1, 333, 18, 7, 219, 221, 219, 7, 18, 333], [0, 0, 0, 0, 101, 49, 1, 333, 18, 7, 219, 221, 219, 7, 18, 333]]"
P3HT,BT2,-5.057777777777777,-2.989444444444445,-5.5,-3.53,1.5,CF,_,150.0,PEDOT:PSS,Ca,4.93,4.93,0.97,67.0,"[0, 0, 41, 40, 40, 194, 1, 333, 56, 7, 219, 221, 219, 7, 56, 333]","[[0, 0, 41, 40, 40, 194, 1, 333, 56, 7, 219, 221, 219, 7, 56, 333], [0, 0, 194, 41, 40, 40, 1, 333, 56, 7, 219, 221, 219, 7, 56, 333], [0, 0, 40, 194, 41, 40, 1, 333, 56, 7, 219, 221, 219, 7, 56, 333], [0, 0, 40, 40, 194, 41, 1, 333, 56, 7, 219, 221, 219, 7, 56, 333]]"
P3HT,BT2b,-5.057777777777777,-2.989444444444445,-5.41,-3.56,1.0,CF,_,150.0,PEDOT:PSS,Ca,6.08,6.08,0.92,66.0,"[0, 0, 41, 40, 40, 194, 1, 333, 56, 7, 225, 221, 225, 7, 56, 333]","[[0, 0, 41, 40, 40, 194, 1, 333, 56, 7, 225, 221, 225, 7, 56, 333], [0, 0, 194, 41, 40, 40, 1, 333, 56, 7, 225, 221, 225, 7, 56, 333], [0, 0, 40, 194, 41, 40, 1, 333, 56, 7, 225, 221, 225, 7, 56, 333], [0, 0, 40, 40, 194, 41, 1, 333, 56, 7, 225, 221, 225, 7, 56, 333]]"
PBDB-T,CDTCN,-5.297714285714285,-3.4170000000000003,-5.39,-3.8,1.0,CB,DIO,80.0,MoOx,ZnO,6.23,6.22,0.96,57.58,"[49, 7, 100, 9, 1, 222, 7, 7, 219, 221, 322, 221, 219, 7, 7, 222]","[[49, 7, 100, 9, 1, 222, 7, 7, 219, 221, 322, 221, 219, 7, 7, 222], [9, 49, 7, 100, 1, 222, 7, 7, 219, 221, 322, 221, 219, 7, 7, 222], [100, 9, 49, 7, 1, 222, 7, 7, 219, 221, 322, 221, 219, 7, 7, 222], [7, 100, 9, 49, 1, 222, 7, 7, 219, 221, 322, 221, 219, 7, 7, 222]]"
PTB7-Th,IHIC,-5.204782608695651,-3.5391891891891896,-5.45,-3.93,0.667,DCB,CN,25.0,MoOx,ZnO,9.77,9.76,0.754,68.1,"[0, 0, 0, 0, 0, 0, 49, 101, 1, 222, 7, 219, 79, 219, 7, 222]","[[0, 0, 0, 0, 0, 0, 49, 101, 1, 222, 7, 219, 79, 219, 7, 222], [0, 0, 0, 0, 0, 0, 101, 49, 1, 222, 7, 219, 79, 219, 7, 222]]"
PBDB-T,ITIC,-5.297714285714285,-3.4170000000000003,-5.574146341463415,-3.915,1.0,CB,DIO,25.0,MoOx,ZnO,7.4,7.26,0.88,59.8,"[0, 0, 0, 0, 49, 7, 100, 9, 1, 222, 79, 219, 221, 219, 79, 222]","[[0, 0, 0, 0, 49, 7, 100, 9, 1, 222, 79, 219, 221, 219, 79, 222], [0, 0, 0, 0, 9, 49, 7, 100, 1, 222, 79, 219, 221, 219, 79, 222], [0, 0, 0, 0, 100, 9, 49, 7, 1, 222, 79, 219, 221, 219, 79, 222], [0, 0, 0, 0, 7, 100, 9, 49, 1, 222, 79, 219, 221, 219, 79, 222]]"