Donor,Acceptor,HOMO_D_eV,LUMO_D_eV,HOMO_A_eV,LUMO_A_eV,D_A_ratio_m_m,solvent,solvent_additive,annealing_temperature,hole_contact_layer,electron_contact_layer,PCE_percent,calc_PCE_percent,Voc_V,FF_percent,DA_manual_tokenized,DA_manual_tokenized_aug
PBDT-S-2TC,ITIC,-5.47,-3.58,-5.574146341463415,-3.915,1.0,CB,_,120.0,PEDOT:PSS,C60-bissalt,10.12,10.12,0.96,64.3,"[0, 0, 0, 0, 0, 14, 9, 50, 1, 222, 79, 219, 221, 219, 79, 222]","[[0, 0, 0, 0, 0, 14, 9, 50, 1, 222, 79, 219, 221, 219, 79, 222], [0, 0, 0, 0, 0, 50, 14, 9, 1, 222, 79, 219, 221, 219, 79, 222], [0, 0, 0, 0, 0, 9, 50, 14, 1, 222, 79, 219, 221, 219, 79, 222]]"
PBDT-DTN,ITIC,-5.37,-3.53,-5.574146341463415,-3.915,0.667,CF,DPE,25.0,PEDOT:PSS,Ca,8.3,8.25,0.92,65.0,"[0, 0, 0, 0, 49, 64, 107, 65, 1, 222, 79, 219, 221, 219, 79, 222]","[[0, 0, 0, 0, 49, 64, 107, 65, 1, 222, 79, 219, 221, 219, 79, 222], [0, 0, 0, 0, 65, 49, 64, 107, 1, 222, 79, 219, 221, 219, 79, 222], [0, 0, 0, 0, 107, 65, 49, 64, 1, 222, 79, 219, 221, 219, 79, 222], [0, 0, 0, 0, 64, 107, 65, 49, 1, 222, 79, 219, 221, 219, 79, 222]]"
PBDT-FBT,ITIC,-5.14,-3.35,-5.574146341463415,-3.915,1.0,CB,DIO,25.0,MoOx,ZnO,7.15,7.18,0.82,63.8,"[0, 0, 0, 0, 21, 3, 22, 5, 1, 222, 79, 219, 221, 219, 79, 222]","[[0, 0, 0, 0, 21, 3, 22, 5, 1, 222, 79, 219, 221, 219, 79, 222], [0, 0, 0, 0, 5, 21, 3, 22, 1, 222, 79, 219, 221, 219, 79, 222], [0, 0, 0, 0, 22, 5, 21, 3, 1, 222, 79, 219, 221, 219, 79, 222], [0, 0, 0, 0, 3, 22, 5, 21, 1, 222, 79, 219, 221, 219, 79, 222]]"
PBDTF-FBT,ITIC,-5.34,-3.53,-5.574146341463415,-3.915,1.0,CB,DIO,25.0,MoOx,ZnO,9.17,9.18,0.9,66.3,"[0, 0, 0, 0, 24, 3, 22, 5, 1, 222, 79, 219, 221, 219, 79, 222]","[[0, 0, 0, 0, 24, 3, 22, 5, 1, 222, 79, 219, 221, 219, 79, 222], [0, 0, 0, 0, 5, 24, 3, 22, 1, 222, 79, 219, 221, 219, 79, 222], [0, 0, 0, 0, 22, 5, 24, 3, 1, 222, 79, 219, 221, 219, 79, 222], [0, 0, 0, 0, 3, 22, 5, 24, 1, 222, 79, 219, 221, 219, 79, 222]]"
PBDTS-FBT,ITIC,-5.2,-3.4,-5.574146341463415,-3.915,1.0,CB,DIO,25.0,MoOx,ZnO,8.58,8.58,0.89,65.9,"[0, 0, 0, 0, 23, 3, 22, 5, 1, 222, 79, 219, 221, 219, 79, 222]","[[0, 0, 0, 0, 23, 3, 22, 5, 1, 222, 79, 219, 221, 219, 79, 222], [0, 0, 0, 0, 5, 23, 3, 22, 1, 222, 79, 219, 221, 219, 79, 222], [0, 0, 0, 0, 22, 5, 23, 3, 1, 222, 79, 219, 221, 219, 79, 222], [0, 0, 0, 0, 3, 22, 5, 23, 1, 222, 79, 219, 221, 219, 79, 222]]"
PBDTSF-FBT,ITIC,-5.41,-3.6,-5.574146341463415,-3.915,1.0,CB,DIO,25.0,MoOx,ZnO,11.66,11.67,1.03,66.3,"[0, 0, 0, 0, 25, 3, 22, 5, 1, 222, 79, 219, 221, 219, 79, 222]","[[0, 0, 0, 0, 25, 3, 22, 5, 1, 222, 79, 219, 221, 219, 79, 222], [0, 0, 0, 0, 5, 25, 3, 22, 1, 222, 79, 219, 221, 219, 79, 222], [0, 0, 0, 0, 22, 5, 25, 3, 1, 222, 79, 219, 221, 219, 79, 222], [0, 0, 0, 0, 3, 22, 5, 25, 1, 222, 79, 219, 221, 219, 79, 222]]"
PBDT-NQx,ITIC,-5.24,-3.42,-5.574146341463415,-3.915,1.25,CB,DIO,25.0,MoOx,ZnO,9.11,9.11,0.87,64.6,"[0, 0, 0, 0, 108, 7, 109, 9, 1, 222, 79, 219, 221, 219, 79, 222]","[[0, 0, 0, 0, 108, 7, 109, 9, 1, 222, 79, 219, 221, 219, 79, 222], [0, 0, 0, 0, 9, 108, 7, 109, 1, 222, 79, 219, 221, 219, 79, 222], [0, 0, 0, 0, 109, 9, 108, 7, 1, 222, 79, 219, 221, 219, 79, 222], [0, 0, 0, 0, 7, 109, 9, 108, 1, 222, 79, 219, 221, 219, 79, 222]]"
PBDTS-NQx,ITIC,-5.31,-3.46,-5.574146341463415,-3.915,1.25,CB,DIO,25.0,MoOx,ZnO,11.47,11.47,0.92,69.8,"[0, 0, 0, 0, 23, 7, 109, 9, 1, 222, 79, 219, 221, 219, 79, 222]","[[0, 0, 0, 0, 23, 7, 109, 9, 1, 222, 79, 219, 221, 219, 79, 222], [0, 0, 0, 0, 9, 23, 7, 109, 1, 222, 79, 219, 221, 219, 79, 222], [0, 0, 0, 0, 109, 9, 23, 7, 1, 222, 79, 219, 221, 219, 79, 222], [0, 0, 0, 0, 7, 109, 9, 23, 1, 222, 79, 219, 221, 219, 79, 222]]"
PBDTS-TDZ,ITIC,-5.39,-2.8,-5.574146341463415,-3.915,1.0,o-xylene,_,25.0,PEDOT:PSS,MoOx,12.8,12.79,1.1,65.4,"[0, 0, 0, 0, 23, 3, 51, 5, 1, 222, 79, 219, 221, 219, 79, 222]","[[0, 0, 0, 0, 23, 3, 51, 5, 1, 222, 79, 219, 221, 219, 79, 222], [0, 0, 0, 0, 5, 23, 3, 51, 1, 222, 79, 219, 221, 219, 79, 222], [0, 0, 0, 0, 51, 5, 23, 3, 1, 222, 79, 219, 221, 219, 79, 222], [0, 0, 0, 0, 3, 51, 5, 23, 1, 222, 79, 219, 221, 219, 79, 222]]"
PBDT-TDZ,ITIC,-5.35,-2.78,-5.574146341463415,-3.915,1.0,o-xylene,_,25.0,PEDOT:PSS,MoOx,9.43,9.43,1.02,58.1,"[0, 0, 0, 0, 21, 3, 51, 5, 1, 222, 79, 219, 221, 219, 79, 222]","[[0, 0, 0, 0, 21, 3, 51, 5, 1, 222, 79, 219, 221, 219, 79, 222], [0, 0, 0, 0, 5, 21, 3, 51, 1, 222, 79, 219, 221, 219, 79, 222], [0, 0, 0, 0, 51, 5, 21, 3, 1, 222, 79, 219, 221, 219, 79, 222], [0, 0, 0, 0, 3, 51, 5, 21, 1, 222, 79, 219, 221, 219, 79, 222]]"
PBFZ-OP,ITIC,-5.33,-3.01,-5.574146341463415,-3.915,1.0,CF,_,160.0,ZnO,MoOx,10.5,10.52,0.91,61.8,"[0, 0, 0, 0, 61, 7, 8, 9, 1, 222, 79, 219, 221, 219, 79, 222]","[[0, 0, 0, 0, 61, 7, 8, 9, 1, 222, 79, 219, 221, 219, 79, 222], [0, 0, 0, 0, 9, 61, 7, 8, 1, 222, 79, 219, 221, 219, 79, 222], [0, 0, 0, 0, 8, 9, 61, 7, 1, 222, 79, 219, 221, 219, 79, 222], [0, 0, 0, 0, 7, 8, 9, 61, 1, 222, 79, 219, 221, 219, 79, 222]]"
PSBZ,ITIC,-5.37,-3.47,-5.574146341463415,-3.915,1.0,CB,_,140.0,ZnO,MoOx,10.5,10.48,0.89,62.0,"[0, 0, 0, 0, 19, 7, 20, 9, 1, 222, 79, 219, 221, 219, 79, 222]","[[0, 0, 0, 0, 19, 7, 20, 9, 1, 222, 79, 219, 221, 219, 79, 222], [0, 0, 0, 0, 9, 19, 7, 20, 1, 222, 79, 219, 221, 219, 79, 222], [0, 0, 0, 0, 20, 9, 19, 7, 1, 222, 79, 219, 221, 219, 79, 222], [0, 0, 0, 0, 7, 20, 9, 19, 1, 222, 79, 219, 221, 219, 79, 222]]"
J71,ITIC1,-5.353333333333333,-3.4318181818181825,-5.48,-3.85,1.0,CF,_,100.0,PEDOT:PSS,ZrAcAc,8.47,8.41,0.92,61.2,"[0, 0, 6, 7, 8, 9, 1, 222, 7, 219, 218, 221, 218, 219, 7, 222]","[[0, 0, 6, 7, 8, 9, 1, 222, 7, 219, 218, 221, 218, 219, 7, 222], [0, 0, 9, 6, 7, 8, 1, 222, 7, 219, 218, 221, 218, 219, 7, 222], [0, 0, 8, 9, 6, 7, 1, 222, 7, 219, 218, 221, 218, 219, 7, 222], [0, 0, 7, 8, 9, 6, 1, 222, 7, 219, 218, 221, 218, 219, 7, 222]]"
J71,ITIC5,-5.353333333333333,-3.4318181818181825,-5.48,-3.95,1.0,CF,_,100.0,PEDOT:PSS,ZrAcAc,12.2,12.23,0.892,74.7,"[0, 0, 6, 7, 8, 9, 1, 255, 7, 219, 218, 221, 218, 219, 7, 255]","[[0, 0, 6, 7, 8, 9, 1, 255, 7, 219, 218, 221, 218, 219, 7, 255], [0, 0, 9, 6, 7, 8, 1, 255, 7, 219, 218, 221, 218, 219, 7, 255], [0, 0, 8, 9, 6, 7, 1, 255, 7, 219, 218, 221, 218, 219, 7, 255], [0, 0, 7, 8, 9, 6, 1, 255, 7, 219, 218, 221, 218, 219, 7, 255]]"
PBDT-ODZ,ITIC-Th,-5.68,-2.89,-5.673333333333334,-3.908888888888889,1.0,CB,_,25.0,CuSCN,PFN-Br,10.12,10.12,1.08,60.4,"[0, 0, 0, 0, 2, 3, 4, 5, 1, 222, 79, 313, 221, 313, 79, 222]","[[0, 0, 0, 0, 2, 3, 4, 5, 1, 222, 79, 313, 221, 313, 79, 222], [0, 0, 0, 0, 5, 2, 3, 4, 1, 222, 79, 313, 221, 313, 79, 222], [0, 0, 0, 0, 4, 5, 2, 3, 1, 222, 79, 313, 221, 313, 79, 222], [0, 0, 0, 0, 3, 4, 5, 2, 1, 222, 79, 313, 221, 313, 79, 222]]"
FTAZ,ITIC-Th,-5.43,-3.3200000000000003,-5.673333333333334,-3.908888888888889,0.667,CF,DIO,25.0,MoOx,ZnO,8.88,8.88,0.915,61.26,"[0, 0, 0, 0, 60, 7, 20, 9, 1, 222, 79, 313, 221, 313, 79, 222]","[[0, 0, 0, 0, 60, 7, 20, 9, 1, 222, 79, 313, 221, 313, 79, 222], [0, 0, 0, 0, 9, 60, 7, 20, 1, 222, 79, 313, 221, 313, 79, 222], [0, 0, 0, 0, 20, 9, 60, 7, 1, 222, 79, 313, 221, 313, 79, 222], [0, 0, 0, 0, 7, 20, 9, 60, 1, 222, 79, 313, 221, 313, 79, 222]]"
FTAZ,ITIC-Th1,-5.43,-3.3200000000000003,-5.720000000000001,-4.065,0.667,CF,DIO,25.0,MoOx,ZnO,12.1,12.1,0.849,73.73,"[0, 0, 0, 0, 60, 7, 20, 9, 1, 264, 79, 313, 221, 313, 79, 264]","[[0, 0, 0, 0, 60, 7, 20, 9, 1, 264, 79, 313, 221, 313, 79, 264], [0, 0, 0, 0, 9, 60, 7, 20, 1, 264, 79, 313, 221, 313, 79, 264], [0, 0, 0, 0, 20, 9, 60, 7, 1, 264, 79, 313, 221, 313, 79, 264], [0, 0, 0, 0, 7, 20, 9, 60, 1, 264, 79, 313, 221, 313, 79, 264]]"
FTAZ,ITIC-Th2,-5.43,-3.3200000000000003,-5.75,-4.07,0.667,CF,DIO,25.0,MoOx,ZnO,9.06,9.05,0.751,70.07,"[0, 0, 0, 0, 60, 7, 20, 9, 1, 217, 79, 313, 221, 313, 79, 217]","[[0, 0, 0, 0, 60, 7, 20, 9, 1, 217, 79, 313, 221, 313, 79, 217], [0, 0, 0, 0, 9, 60, 7, 20, 1, 217, 79, 313, 221, 313, 79, 217], [0, 0, 0, 0, 20, 9, 60, 7, 1, 217, 79, 313, 221, 313, 79, 217], [0, 0, 0, 0, 7, 20, 9, 60, 1, 217, 79, 313, 221, 313, 79, 217]]"
FTAZ,ITIC-Th3,-5.43,-3.3200000000000003,-5.67,-3.73,0.667,CF,DIO,25.0,MoOx,ZnO,10.7,10.74,0.962,68.33,"[0, 0, 0, 0, 60, 7, 20, 9, 1, 281, 79, 313, 221, 313, 79, 281]","[[0, 0, 0, 0, 60, 7, 20, 9, 1, 281, 79, 313, 221, 313, 79, 281], [0, 0, 0, 0, 9, 60, 7, 20, 1, 281, 79, 313, 221, 313, 79, 281], [0, 0, 0, 0, 20, 9, 60, 7, 1, 281, 79, 313, 221, 313, 79, 281], [0, 0, 0, 0, 7, 20, 9, 60, 1, 281, 79, 313, 221, 313, 79, 281]]"
J52,IT-M,-5.218571428571429,-3.341428571428572,-5.513571428571429,-3.808,1.0,CB,DIO,150.0,PEDOT:PSS,PFN-Br,9.4,9.38,0.843,65.1,"[0, 0, 0, 0, 10, 7, 8, 9, 1, 230, 79, 219, 221, 219, 79, 230]","[[0, 0, 0, 0, 10, 7, 8, 9, 1, 230, 79, 219, 221, 219, 79, 230], [0, 0, 0, 0, 9, 10, 7, 8, 1, 230, 79, 219, 221, 219, 79, 230], [0, 0, 0, 0, 8, 9, 10, 7, 1, 230, 79, 219, 221, 219, 79, 230], [0, 0, 0, 0, 7, 8, 9, 10, 1, 230, 79, 219, 221, 219, 79, 230]]"
J52,IEICO,-5.218571428571429,-3.341428571428572,-5.32,-3.95,1.0,CB,DIO,150.0,PEDOT:PSS,PFN-Br,6.5,6.53,0.848,51.0,"[0, 0, 10, 7, 8, 9, 1, 222, 229, 7, 219, 221, 219, 7, 229, 222]","[[0, 0, 10, 7, 8, 9, 1, 222, 229, 7, 219, 221, 219, 7, 229, 222], [0, 0, 9, 10, 7, 8, 1, 222, 229, 7, 219, 221, 219, 7, 229, 222], [0, 0, 8, 9, 10, 7, 1, 222, 229, 7, 219, 221, 219, 7, 229, 222], [0, 0, 7, 8, 9, 10, 1, 222, 229, 7, 219, 221, 219, 7, 229, 222]]"
J71,ITVffIC,-5.353333333333333,-3.4318181818181825,-5.58,-4.04,0.833,CF,CN,160.0,PEDOT:PSS,PDINO,10.54,10.54,0.81,63.18,"[0, 0, 0, 0, 6, 7, 8, 9, 1, 233, 79, 219, 221, 219, 79, 233]","[[0, 0, 0, 0, 6, 7, 8, 9, 1, 233, 79, 219, 221, 219, 79, 233], [0, 0, 0, 0, 9, 6, 7, 8, 1, 233, 79, 219, 221, 219, 79, 233], [0, 0, 0, 0, 8, 9, 6, 7, 1, 233, 79, 219, 221, 219, 79, 233], [0, 0, 0, 0, 7, 8, 9, 6, 1, 233, 79, 219, 221, 219, 79, 233]]"
J71,ITVfIC,-5.353333333333333,-3.4318181818181825,-5.56,-4.01,0.833,CF,_,160.0,PEDOT:PSS,PDINO,9.72,9.72,0.84,58.67,"[0, 0, 0, 0, 6, 7, 8, 9, 1, 264, 79, 219, 221, 219, 79, 264]","[[0, 0, 0, 0, 6, 7, 8, 9, 1, 264, 79, 219, 221, 219, 79, 264], [0, 0, 0, 0, 9, 6, 7, 8, 1, 264, 79, 219, 221, 219, 79, 264], [0, 0, 0, 0, 8, 9, 6, 7, 1, 264, 79, 219, 221, 219, 79, 264], [0, 0, 0, 0, 7, 8, 9, 6, 1, 264, 79, 219, 221, 219, 79, 264]]"
J71,ITVIC,-5.353333333333333,-3.4318181818181825,-5.46,-3.97,0.833,CF,_,160.0,PEDOT:PSS,PDINO,7.34,7.42,0.89,57.64,"[0, 0, 0, 0, 6, 7, 8, 9, 1, 232, 79, 219, 221, 219, 79, 232]","[[0, 0, 0, 0, 6, 7, 8, 9, 1, 232, 79, 219, 221, 219, 79, 232], [0, 0, 0, 0, 9, 6, 7, 8, 1, 232, 79, 219, 221, 219, 79, 232], [0, 0, 0, 0, 8, 9, 6, 7, 1, 232, 79, 219, 221, 219, 79, 232], [0, 0, 0, 0, 7, 8, 9, 6, 1, 232, 79, 219, 221, 219, 79, 232]]"
J71,MeIC2,-5.353333333333333,-3.4318181818181825,-5.56,-3.97,1.0,CF,_,150.0,PEDOT:PSS,PDIN,10.2,10.38,0.885,69.4,"[0, 0, 6, 7, 8, 9, 1, 227, 7, 219, 218, 221, 218, 219, 7, 227]","[[0, 0, 6, 7, 8, 9, 1, 227, 7, 219, 218, 221, 218, 219, 7, 227], [0, 0, 9, 6, 7, 8, 1, 227, 7, 219, 218, 221, 218, 219, 7, 227], [0, 0, 8, 9, 6, 7, 1, 227, 7, 219, 218, 221, 218, 219, 7, 227], [0, 0, 7, 8, 9, 6, 1, 227, 7, 219, 218, 221, 218, 219, 7, 227]]"
J70,m-ITIC,-5.37,-2.91,-5.526666666666667,-3.8515384615384622,0.667,CF,_,150.0,PEDOT:PSS,PDINO,11.62,11.62,0.92,69.82,"[0, 0, 0, 0, 30, 7, 8, 9, 1, 222, 79, 228, 221, 228, 79, 222]","[[0, 0, 0, 0, 30, 7, 8, 9, 1, 222, 79, 228, 221, 228, 79, 222], [0, 0, 0, 0, 9, 30, 7, 8, 1, 222, 79, 228, 221, 228, 79, 222], [0, 0, 0, 0, 8, 9, 30, 7, 1, 222, 79, 228, 221, 228, 79, 222], [0, 0, 0, 0, 7, 8, 9, 30, 1, 222, 79, 228, 221, 228, 79, 222]]"
J71,m-ITIC,-5.353333333333333,-3.4318181818181825,-5.526666666666667,-3.8515384615384622,0.667,CF,_,150.0,PEDOT:PSS,PDINO,12.05,12.05,0.944,70.59,"[0, 0, 0, 0, 6, 7, 8, 9, 1, 222, 79, 228, 221, 228, 79, 222]","[[0, 0, 0, 0, 6, 7, 8, 9, 1, 222, 79, 228, 221, 228, 79, 222], [0, 0, 0, 0, 9, 6, 7, 8, 1, 222, 79, 228, 221, 228, 79, 222], [0, 0, 0, 0, 8, 9, 6, 7, 1, 222, 79, 228, 221, 228, 79, 222], [0, 0, 0, 0, 7, 8, 9, 6, 1, 222, 79, 228, 221, 228, 79, 222]]"
J72,m-ITIC,-5.42,-3.29,-5.526666666666667,-3.8515384615384622,0.667,CF,_,150.0,PEDOT:PSS,PDINO,10.23,10.23,0.962,65.03,"[0, 0, 0, 0, 31, 7, 8, 9, 1, 222, 79, 228, 221, 228, 79, 222]","[[0, 0, 0, 0, 31, 7, 8, 9, 1, 222, 79, 228, 221, 228, 79, 222], [0, 0, 0, 0, 9, 31, 7, 8, 1, 222, 79, 228, 221, 228, 79, 222], [0, 0, 0, 0, 8, 9, 31, 7, 1, 222, 79, 228, 221, 228, 79, 222], [0, 0, 0, 0, 7, 8, 9, 31, 1, 222, 79, 228, 221, 228, 79, 222]]"
J73,m-ITIC,-5.46,-2.92,-5.526666666666667,-3.8515384615384622,0.667,CF,_,150.0,PEDOT:PSS,PDINO,10.71,10.71,0.974,66.87,"[0, 0, 0, 0, 32, 7, 8, 9, 1, 222, 79, 228, 221, 228, 79, 222]","[[0, 0, 0, 0, 32, 7, 8, 9, 1, 222, 79, 228, 221, 228, 79, 222], [0, 0, 0, 0, 9, 32, 7, 8, 1, 222, 79, 228, 221, 228, 79, 222], [0, 0, 0, 0, 8, 9, 32, 7, 1, 222, 79, 228, 221, 228, 79, 222], [0, 0, 0, 0, 7, 8, 9, 32, 1, 222, 79, 228, 221, 228, 79, 222]]"
J74,m-ITIC,-5.56,-3.06,-5.526666666666667,-3.8515384615384622,0.667,CF,_,150.0,PEDOT:PSS,PDINO,9.63,9.62,0.99,61.18,"[0, 0, 0, 0, 33, 7, 8, 9, 1, 222, 79, 228, 221, 228, 79, 222]","[[0, 0, 0, 0, 33, 7, 8, 9, 1, 222, 79, 228, 221, 228, 79, 222], [0, 0, 0, 0, 9, 33, 7, 8, 1, 222, 79, 228, 221, 228, 79, 222], [0, 0, 0, 0, 8, 9, 33, 7, 1, 222, 79, 228, 221, 228, 79, 222], [0, 0, 0, 0, 7, 8, 9, 33, 1, 222, 79, 228, 221, 228, 79, 222]]"
J91,m-ITIC,-5.5,-3.02,-5.526666666666667,-3.8515384615384622,0.667,CF,_,150.0,PEDOT:PSS,PDINO,11.63,11.63,0.984,65.54,"[0, 0, 0, 0, 11, 7, 8, 9, 1, 222, 79, 228, 221, 228, 79, 222]","[[0, 0, 0, 0, 11, 7, 8, 9, 1, 222, 79, 228, 221, 228, 79, 222], [0, 0, 0, 0, 9, 11, 7, 8, 1, 222, 79, 228, 221, 228, 79, 222], [0, 0, 0, 0, 8, 9, 11, 7, 1, 222, 79, 228, 221, 228, 79, 222], [0, 0, 0, 0, 7, 8, 9, 11, 1, 222, 79, 228, 221, 228, 79, 222]]"
J52,m-ITIC,-5.218571428571429,-3.341428571428572,-5.526666666666667,-3.8515384615384622,0.667,CF,_,150.0,PEDOT:PSS,PDINO,5.98,5.98,0.701,49.73,"[0, 0, 0, 0, 10, 7, 8, 9, 1, 222, 79, 228, 221, 228, 79, 222]","[[0, 0, 0, 0, 10, 7, 8, 9, 1, 222, 79, 228, 221, 228, 79, 222], [0, 0, 0, 0, 9, 10, 7, 8, 1, 222, 79, 228, 221, 228, 79, 222], [0, 0, 0, 0, 8, 9, 10, 7, 1, 222, 79, 228, 221, 228, 79, 222], [0, 0, 0, 0, 7, 8, 9, 10, 1, 222, 79, 228, 221, 228, 79, 222]]"
J71,m-MeIC,-5.353333333333333,-3.4318181818181825,-5.54,-3.9,1.0,CF,_,150.0,PEDOT:PSS,PDINO,11.73,11.73,0.919,69.2,"[0, 0, 0, 0, 6, 7, 8, 9, 1, 227, 79, 228, 221, 228, 79, 227]","[[0, 0, 0, 0, 6, 7, 8, 9, 1, 227, 79, 228, 221, 228, 79, 227], [0, 0, 0, 0, 9, 6, 7, 8, 1, 227, 79, 228, 221, 228, 79, 227], [0, 0, 0, 0, 8, 9, 6, 7, 1, 227, 79, 228, 221, 228, 79, 227], [0, 0, 0, 0, 7, 8, 9, 6, 1, 227, 79, 228, 221, 228, 79, 227]]"
PBDB-T,m-MeIC,-5.297714285714285,-3.4170000000000003,-5.54,-3.9,1.0,CF,_,150.0,PEDOT:PSS,PDINO,10.68,10.67,0.843,69.7,"[0, 0, 0, 0, 49, 7, 100, 9, 1, 227, 79, 228, 221, 228, 79, 227]","[[0, 0, 0, 0, 49, 7, 100, 9, 1, 227, 79, 228, 221, 228, 79, 227], [0, 0, 0, 0, 9, 49, 7, 100, 1, 227, 79, 228, 221, 228, 79, 227], [0, 0, 0, 0, 100, 9, 49, 7, 1, 227, 79, 228, 221, 228, 79, 227], [0, 0, 0, 0, 7, 100, 9, 49, 1, 227, 79, 228, 221, 228, 79, 227]]"
PTB7-Th,m-MeIC,-5.204782608695651,-3.5391891891891896,-5.54,-3.9,1.0,CF,CN,25.0,PEDOT:PSS,PDINO,8.12,8.11,0.796,61.7,"[0, 0, 0, 0, 0, 0, 49, 101, 1, 227, 79, 228, 221, 228, 79, 227]","[[0, 0, 0, 0, 0, 0, 49, 101, 1, 227, 79, 228, 221, 228, 79, 227], [0, 0, 0, 0, 0, 0, 101, 49, 1, 227, 79, 228, 221, 228, 79, 227]]"
J61,TP21,-5.303333333333334,-3.151666666666667,-5.46,-3.61,1.0,CB,_,140.0,PEDOT:PSS,Ca,5.81,5.85,1.05,51.0,"[0, 0, 0, 0, 13, 7, 8, 9, 1, 240, 241, 221, 225, 221, 241, 240]","[[0, 0, 0, 0, 13, 7, 8, 9, 1, 240, 241, 221, 225, 221, 241, 240], [0, 0, 0, 0, 9, 13, 7, 8, 1, 240, 241, 221, 225, 221, 241, 240], [0, 0, 0, 0, 8, 9, 13, 7, 1, 240, 241, 221, 225, 221, 241, 240], [0, 0, 0, 0, 7, 8, 9, 13, 1, 240, 241, 221, 225, 221, 241, 240]]"
FTAZ,IHIC2,-5.43,-3.3200000000000003,-5.69,-3.86,0.667,CF,_,25.0,MoOx,ZnO,7.45,7.45,0.775,61.2,"[0, 0, 0, 0, 60, 7, 20, 9, 1, 217, 7, 219, 267, 219, 7, 217]","[[0, 0, 0, 0, 60, 7, 20, 9, 1, 217, 7, 219, 267, 219, 7, 217], [0, 0, 0, 0, 9, 60, 7, 20, 1, 217, 7, 219, 267, 219, 7, 217], [0, 0, 0, 0, 20, 9, 60, 7, 1, 217, 7, 219, 267, 219, 7, 217], [0, 0, 0, 0, 7, 20, 9, 60, 1, 217, 7, 219, 267, 219, 7, 217]]"
FTAZ,IOIC2,-5.43,-3.3200000000000003,-5.41,-3.78,0.667,CF,DIO,25.0,MoOx,ZnO,12.3,12.29,0.9,69.3,"[0, 0, 60, 7, 20, 9, 1, 217, 218, 219, 7, 220, 7, 219, 218, 217]","[[0, 0, 60, 7, 20, 9, 1, 217, 218, 219, 7, 220, 7, 219, 218, 217], [0, 0, 9, 60, 7, 20, 1, 217, 218, 219, 7, 220, 7, 219, 218, 217], [0, 0, 20, 9, 60, 7, 1, 217, 218, 219, 7, 220, 7, 219, 218, 217], [0, 0, 7, 20, 9, 60, 1, 217, 218, 219, 7, 220, 7, 219, 218, 217]]"
PBQ-0F,ITIC,-5.18,-3.48,-5.574146341463415,-3.915,1.0,THF,isopropanol,160.0,MoOx,ZnO,6.68,6.68,0.69,59.91,"[0, 0, 0, 0, 49, 7, 97, 9, 1, 222, 79, 219, 221, 219, 79, 222]","[[0, 0, 0, 0, 49, 7, 97, 9, 1, 222, 79, 219, 221, 219, 79, 222], [0, 0, 0, 0, 9, 49, 7, 97, 1, 222, 79, 219, 221, 219, 79, 222], [0, 0, 0, 0, 97, 9, 49, 7, 1, 222, 79, 219, 221, 219, 79, 222], [0, 0, 0, 0, 7, 97, 9, 49, 1, 222, 79, 219, 221, 219, 79, 222]]"
PBQ-QF,ITIC,-5.34,-3.62,-5.574146341463415,-3.915,1.0,THF,isopropanol,160.0,MoOx,ZnO,8.9,8.9,0.83,62.49,"[0, 0, 0, 0, 49, 7, 98, 9, 1, 222, 79, 219, 221, 219, 79, 222]","[[0, 0, 0, 0, 49, 7, 98, 9, 1, 222, 79, 219, 221, 219, 79, 222], [0, 0, 0, 0, 9, 49, 7, 98, 1, 222, 79, 219, 221, 219, 79, 222], [0, 0, 0, 0, 98, 9, 49, 7, 1, 222, 79, 219, 221, 219, 79, 222], [0, 0, 0, 0, 7, 98, 9, 49, 1, 222, 79, 219, 221, 219, 79, 222]]"
PBQ-4F,ITIC,-5.49,-3.7,-5.574146341463415,-3.915,1.0,THF,isopropanol,160.0,MoOx,ZnO,11.34,11.34,0.95,66.8,"[0, 0, 0, 0, 99, 7, 98, 9, 1, 222, 79, 219, 221, 219, 79, 222]","[[0, 0, 0, 0, 99, 7, 98, 9, 1, 222, 79, 219, 221, 219, 79, 222], [0, 0, 0, 0, 9, 99, 7, 98, 1, 222, 79, 219, 221, 219, 79, 222], [0, 0, 0, 0, 98, 9, 99, 7, 1, 222, 79, 219, 221, 219, 79, 222], [0, 0, 0, 0, 7, 98, 9, 99, 1, 222, 79, 219, 221, 219, 79, 222]]"
PBTA-TF,ITCC,-5.36,-3.4200000000000004,-5.47,-3.76,1.0,CF,DIO,25.0,PEDOT:PSS,PFN-Br,10.4,10.41,1.0,67.0,"[0, 0, 0, 0, 192, 7, 193, 9, 1, 270, 79, 219, 221, 219, 79, 270]","[[0, 0, 0, 0, 192, 7, 193, 9, 1, 270, 79, 219, 221, 219, 79, 270], [0, 0, 0, 0, 9, 192, 7, 193, 1, 270, 79, 219, 221, 219, 79, 270], [0, 0, 0, 0, 193, 9, 192, 7, 1, 270, 79, 219, 221, 219, 79, 270], [0, 0, 0, 0, 7, 193, 9, 192, 1, 270, 79, 219, 221, 219, 79, 270]]"
PBTA-TF,IT-M,-5.36,-3.4200000000000004,-5.513571428571429,-3.808,1.0,CF,DIO,25.0,PEDOT:PSS,PFN-Br,12.2,12.23,0.97,71.0,"[0, 0, 0, 0, 192, 7, 193, 9, 1, 230, 79, 219, 221, 219, 79, 230]","[[0, 0, 0, 0, 192, 7, 193, 9, 1, 230, 79, 219, 221, 219, 79, 230], [0, 0, 0, 0, 9, 192, 7, 193, 1, 230, 79, 219, 221, 219, 79, 230], [0, 0, 0, 0, 193, 9, 192, 7, 1, 230, 79, 219, 221, 219, 79, 230], [0, 0, 0, 0, 7, 193, 9, 192, 1, 230, 79, 219, 221, 219, 79, 230]]"
PBTA-TF,IT-4F,-5.36,-3.4200000000000004,-5.66875,-4.060416666666667,1.0,CF,DIO,25.0,PEDOT:PSS,PFN-Br,10.6,10.64,0.73,72.0,"[0, 0, 0, 0, 192, 7, 193, 9, 1, 217, 79, 219, 221, 219, 79, 217]","[[0, 0, 0, 0, 192, 7, 193, 9, 1, 217, 79, 219, 221, 219, 79, 217], [0, 0, 0, 0, 9, 192, 7, 193, 1, 217, 79, 219, 221, 219, 79, 217], [0, 0, 0, 0, 193, 9, 192, 7, 1, 217, 79, 219, 221, 219, 79, 217], [0, 0, 0, 0, 7, 193, 9, 192, 1, 217, 79, 219, 221, 219, 79, 217]]"
PBTA-TF,IT-M,-5.36,-3.4200000000000004,-5.513571428571429,-3.808,1.0,THF,isopropanol,25.0,PEDOT:PSS,PFN-Br,12.0,11.82,0.96,67.0,"[0, 0, 0, 0, 192, 7, 193, 9, 1, 230, 79, 219, 221, 219, 79, 230]","[[0, 0, 0, 0, 192, 7, 193, 9, 1, 230, 79, 219, 221, 219, 79, 230], [0, 0, 0, 0, 9, 192, 7, 193, 1, 230, 79, 219, 221, 219, 79, 230], [0, 0, 0, 0, 193, 9, 192, 7, 1, 230, 79, 219, 221, 219, 79, 230], [0, 0, 0, 0, 7, 193, 9, 192, 1, 230, 79, 219, 221, 219, 79, 230]]"