Donor,Acceptor,HOMO_D_eV,LUMO_D_eV,HOMO_A_eV,LUMO_A_eV,D_A_ratio_m_m,solvent,solvent_additive,annealing_temperature,hole_contact_layer,electron_contact_layer,PCE_percent,calc_PCE_percent,Voc_V,FF_percent,DA_manual_tokenized,DA_manual_tokenized_aug
PBDB-T,F-Br,-5.297714285714285,-3.4170000000000003,-5.62,-4.06,1.0,CB,DIO,25.0,PEDOT:PSS,PDINO,12.05,12.05,0.87,76.0,"[0, 0, 49, 7, 100, 9, 1, 292, 7, 225, 221, 225, 221, 225, 7, 292]","[[0, 0, 49, 7, 100, 9, 1, 292, 7, 225, 221, 225, 221, 225, 7, 292], [0, 0, 9, 49, 7, 100, 1, 292, 7, 225, 221, 225, 221, 225, 7, 292], [0, 0, 100, 9, 49, 7, 1, 292, 7, 225, 221, 225, 221, 225, 7, 292], [0, 0, 7, 100, 9, 49, 1, 292, 7, 225, 221, 225, 221, 225, 7, 292]]"
PBDB-T,DF-PCIC,-5.297714285714285,-3.4170000000000003,-5.49,-3.77,0.833,CF,CN,100.0,MoOx,ZnO,11.63,11.34,0.86,72.62,"[0, 0, 49, 7, 100, 9, 1, 222, 7, 260, 7, 259, 7, 258, 7, 222]","[[0, 0, 49, 7, 100, 9, 1, 222, 7, 260, 7, 259, 7, 258, 7, 222], [0, 0, 9, 49, 7, 100, 1, 222, 7, 260, 7, 259, 7, 258, 7, 222], [0, 0, 100, 9, 49, 7, 1, 222, 7, 260, 7, 259, 7, 258, 7, 222], [0, 0, 7, 100, 9, 49, 1, 222, 7, 260, 7, 259, 7, 258, 7, 222]]"
PBDB-T,DF-PCNC,-5.297714285714285,-3.4170000000000003,-5.42,-3.81,0.833,CF,CN,130.0,MoOx,ZnO,10.14,10.27,0.91,72.07,"[0, 0, 49, 7, 100, 9, 1, 237, 7, 260, 7, 259, 7, 258, 7, 237]","[[0, 0, 49, 7, 100, 9, 1, 237, 7, 260, 7, 259, 7, 258, 7, 237], [0, 0, 9, 49, 7, 100, 1, 237, 7, 260, 7, 259, 7, 258, 7, 237], [0, 0, 100, 9, 49, 7, 1, 237, 7, 260, 7, 259, 7, 258, 7, 237], [0, 0, 7, 100, 9, 49, 1, 237, 7, 260, 7, 259, 7, 258, 7, 237]]"
PTB7-Th,ITCT,-5.204782608695651,-3.5391891891891896,-5.596666666666667,-3.796666666666667,0.833,CF,DIO,80.0,MoOx,ZnO,10.42,10.35,0.95,72.0,"[0, 0, 0, 0, 0, 0, 49, 101, 1, 255, 79, 219, 221, 219, 79, 255]","[[0, 0, 0, 0, 0, 0, 49, 101, 1, 255, 79, 219, 221, 219, 79, 255], [0, 0, 0, 0, 0, 0, 101, 49, 1, 255, 79, 219, 221, 219, 79, 255]]"
PTB7-Th,ITIC,-5.204782608695651,-3.5391891891891896,-5.574146341463415,-3.915,0.769,CF,DIO,25.0,PEDOT:PSS,PDIN,6.8,6.79,0.81,59.0,"[0, 0, 0, 0, 0, 0, 49, 101, 1, 222, 79, 219, 221, 219, 79, 222]","[[0, 0, 0, 0, 0, 0, 49, 101, 1, 222, 79, 219, 221, 219, 79, 222], [0, 0, 0, 0, 0, 0, 101, 49, 1, 222, 79, 219, 221, 219, 79, 222]]"
PTB7-Th,IDIC,-5.204782608695651,-3.5391891891891896,-5.706,-4.002666666666667,1.0,CF,_,25.0,MoOx,ZnO,5.24,4.94,0.81,56.0,"[0, 0, 0, 0, 0, 0, 49, 101, 1, 222, 7, 234, 221, 234, 7, 222]","[[0, 0, 0, 0, 0, 0, 49, 101, 1, 222, 7, 234, 221, 234, 7, 222], [0, 0, 0, 0, 0, 0, 101, 49, 1, 222, 7, 234, 221, 234, 7, 222]]"
PTB7-Th,IEICO-4F,-5.204782608695651,-3.5391891891891896,-5.309971428571429,-3.851028571428572,0.667,CB,_,100.0,PEDOT:PSS,PFN-Br,10.0,9.95,0.74,59.0,"[0, 0, 0, 0, 49, 101, 1, 217, 229, 7, 219, 221, 219, 7, 229, 217]","[[0, 0, 0, 0, 49, 101, 1, 217, 229, 7, 219, 221, 219, 7, 229, 217], [0, 0, 0, 0, 101, 49, 1, 217, 229, 7, 219, 221, 219, 7, 229, 217]]"
PTB7-Th,SFBRCN,-5.204782608695651,-3.5391891891891896,-5.93,-3.86,0.833,CB,DIO,25.0,MoO3,ZnO,10.12,10.09,0.9,65.0,"[0, 0, 0, 0, 0, 0, 49, 101, 1, 236, 56, 221, 276, 221, 56, 236]","[[0, 0, 0, 0, 0, 0, 49, 101, 1, 236, 56, 221, 276, 221, 56, 236], [0, 0, 0, 0, 0, 0, 101, 49, 1, 236, 56, 221, 276, 221, 56, 236]]"
PTQ10,IDIC,-5.54,-2.98,-5.706,-4.002666666666667,1.0,CF,_,140.0,PEDOT:PSS,PDINO,12.7,12.7,0.969,73.6,"[0, 0, 0, 0, 0, 0, 9, 169, 1, 222, 7, 234, 221, 234, 7, 222]","[[0, 0, 0, 0, 0, 0, 9, 169, 1, 222, 7, 234, 221, 234, 7, 222], [0, 0, 0, 0, 0, 0, 169, 9, 1, 222, 7, 234, 221, 234, 7, 222]]"
PBDB-T,IDTIC,-5.297714285714285,-3.4170000000000003,-5.885,-3.91,1.0,CB,_,25.0,MoOx,ZnO/PFN-Br,5.67,6.01,0.84,56.3,"[0, 0, 0, 0, 49, 7, 100, 9, 1, 222, 7, 360, 221, 361, 7, 222]","[[0, 0, 0, 0, 49, 7, 100, 9, 1, 222, 7, 360, 221, 361, 7, 222], [0, 0, 0, 0, 9, 49, 7, 100, 1, 222, 7, 360, 221, 361, 7, 222], [0, 0, 0, 0, 100, 9, 49, 7, 1, 222, 7, 360, 221, 361, 7, 222], [0, 0, 0, 0, 7, 100, 9, 49, 1, 222, 7, 360, 221, 361, 7, 222]]"
PBDB-T,IDTTIC,-5.297714285714285,-3.4170000000000003,-5.68,-3.84,1.0,CB,_,25.0,MoOx,ZnO/PFN-Br,11.2,11.19,0.919,70.4,"[0, 0, 0, 0, 49, 7, 100, 9, 1, 222, 79, 360, 221, 361, 79, 222]","[[0, 0, 0, 0, 49, 7, 100, 9, 1, 222, 79, 360, 221, 361, 79, 222], [0, 0, 0, 0, 9, 49, 7, 100, 1, 222, 79, 360, 221, 361, 79, 222], [0, 0, 0, 0, 100, 9, 49, 7, 1, 222, 79, 360, 221, 361, 79, 222], [0, 0, 0, 0, 7, 100, 9, 49, 1, 222, 79, 360, 221, 361, 79, 222]]"
PTB7-Th,ITIC,-5.204782608695651,-3.5391891891891896,-5.574146341463415,-3.915,0.667,CB,_,25.0,MoOx,ZnO,7.62,7.62,0.822,66.2,"[0, 0, 0, 0, 0, 0, 49, 101, 1, 222, 79, 219, 221, 219, 79, 222]","[[0, 0, 0, 0, 0, 0, 49, 101, 1, 222, 79, 219, 221, 219, 79, 222], [0, 0, 0, 0, 0, 0, 101, 49, 1, 222, 79, 219, 221, 219, 79, 222]]"
P3HT,DTFBR,-5.057777777777777,-2.989444444444445,-5.54,-3.68,1.0,o-DCB,_,100.0,PEDOT:PSS,ZrAcAc,3.68,3.59,0.71,62.0,"[41, 40, 40, 194, 1, 240, 289, 7, 219, 221, 234, 221, 219, 7, 289, 240]","[[41, 40, 40, 194, 1, 240, 289, 7, 219, 221, 234, 221, 219, 7, 289, 240], [194, 41, 40, 40, 1, 240, 289, 7, 219, 221, 234, 221, 219, 7, 289, 240], [40, 194, 41, 40, 1, 240, 289, 7, 219, 221, 234, 221, 219, 7, 289, 240], [40, 40, 194, 41, 1, 240, 289, 7, 219, 221, 234, 221, 219, 7, 289, 240]]"
PBT1-C,TPT-2F,-5.449999999999999,-3.41,-5.84,-4.06,1.0,CF,DIO,100.0,MoOx,ZnO,8.33,9.28,0.974,68.6,"[0, 0, 0, 0, 164, 7, 100, 9, 1, 264, 7, 219, 221, 219, 7, 264]","[[0, 0, 0, 0, 164, 7, 100, 9, 1, 264, 7, 219, 221, 219, 7, 264], [0, 0, 0, 0, 9, 164, 7, 100, 1, 264, 7, 219, 221, 219, 7, 264], [0, 0, 0, 0, 100, 9, 164, 7, 1, 264, 7, 219, 221, 219, 7, 264], [0, 0, 0, 0, 7, 100, 9, 164, 1, 264, 7, 219, 221, 219, 7, 264]]"
PBDB-T,4TIC-4F,-5.297714285714285,-3.4170000000000003,-5.6,-4.21,1.0,CB,_,130.0,PEDOT:PSS,C60-bissalt,7.99,7.99,0.652,57.0,"[0, 0, 0, 0, 49, 7, 100, 9, 1, 217, 7, 219, 79, 219, 7, 217]","[[0, 0, 0, 0, 49, 7, 100, 9, 1, 217, 7, 219, 79, 219, 7, 217], [0, 0, 0, 0, 9, 49, 7, 100, 1, 217, 7, 219, 79, 219, 7, 217], [0, 0, 0, 0, 100, 9, 49, 7, 1, 217, 7, 219, 79, 219, 7, 217], [0, 0, 0, 0, 7, 100, 9, 49, 1, 217, 7, 219, 79, 219, 7, 217]]"
PBDB-T,6TIC-4F,-5.297714285714285,-3.4170000000000003,-5.45,-4.14,1.0,CB,_,25.0,PEDOT:PSS,C60-bissalt,11.14,11.14,0.723,67.0,"[0, 0, 0, 0, 49, 7, 100, 9, 1, 217, 79, 219, 79, 219, 79, 217]","[[0, 0, 0, 0, 49, 7, 100, 9, 1, 217, 79, 219, 79, 219, 79, 217], [0, 0, 0, 0, 9, 49, 7, 100, 1, 217, 79, 219, 79, 219, 79, 217], [0, 0, 0, 0, 100, 9, 49, 7, 1, 217, 79, 219, 79, 219, 79, 217], [0, 0, 0, 0, 7, 100, 9, 49, 1, 217, 79, 219, 79, 219, 79, 217]]"
PBDB-T,ITBTR-C2,-5.297714285714285,-3.4170000000000003,-5.3,-3.7,1.0,CB,DIO,25.0,MoOx,ZnO,6.96,6.96,0.89,58.42,"[0, 0, 49, 7, 100, 9, 1, 236, 56, 79, 219, 221, 219, 79, 56, 236]","[[0, 0, 49, 7, 100, 9, 1, 236, 56, 79, 219, 221, 219, 79, 56, 236], [0, 0, 9, 49, 7, 100, 1, 236, 56, 79, 219, 221, 219, 79, 56, 236], [0, 0, 100, 9, 49, 7, 1, 236, 56, 79, 219, 221, 219, 79, 56, 236], [0, 0, 7, 100, 9, 49, 1, 236, 56, 79, 219, 221, 219, 79, 56, 236]]"
PBDB-T,ITBTR-C4,-5.297714285714285,-3.4170000000000003,-5.3,-3.71,1.0,CB,DIO,25.0,MoOx,ZnO,7.33,7.19,0.9,54.15,"[0, 0, 49, 7, 100, 9, 1, 362, 56, 79, 219, 221, 219, 79, 56, 362]","[[0, 0, 49, 7, 100, 9, 1, 362, 56, 79, 219, 221, 219, 79, 56, 362], [0, 0, 9, 49, 7, 100, 1, 362, 56, 79, 219, 221, 219, 79, 56, 362], [0, 0, 100, 9, 49, 7, 1, 362, 56, 79, 219, 221, 219, 79, 56, 362], [0, 0, 7, 100, 9, 49, 1, 362, 56, 79, 219, 221, 219, 79, 56, 362]]"
PBDB-T,ITBTR-C6,-5.297714285714285,-3.4170000000000003,-5.3,-3.71,1.0,CB,DIO,25.0,MoOx,ZnO,8.18,8.09,0.89,57.83,"[0, 0, 49, 7, 100, 9, 1, 338, 56, 79, 219, 221, 219, 79, 56, 338]","[[0, 0, 49, 7, 100, 9, 1, 338, 56, 79, 219, 221, 219, 79, 56, 338], [0, 0, 9, 49, 7, 100, 1, 338, 56, 79, 219, 221, 219, 79, 56, 338], [0, 0, 100, 9, 49, 7, 1, 338, 56, 79, 219, 221, 219, 79, 56, 338], [0, 0, 7, 100, 9, 49, 1, 338, 56, 79, 219, 221, 219, 79, 56, 338]]"
PBDB-T,ITBTR-C8,-5.297714285714285,-3.4170000000000003,-5.28,-3.7,1.0,CB,DIO,25.0,MoOx,ZnO,7.85,7.76,0.9,58.47,"[0, 0, 49, 7, 100, 9, 1, 226, 56, 79, 219, 221, 219, 79, 56, 226]","[[0, 0, 49, 7, 100, 9, 1, 226, 56, 79, 219, 221, 219, 79, 56, 226], [0, 0, 9, 49, 7, 100, 1, 226, 56, 79, 219, 221, 219, 79, 56, 226], [0, 0, 100, 9, 49, 7, 1, 226, 56, 79, 219, 221, 219, 79, 56, 226], [0, 0, 7, 100, 9, 49, 1, 226, 56, 79, 219, 221, 219, 79, 56, 226]]"
PBDB-T2Cl,IDIC-4H,-5.510000000000001,-3.57,-5.7,-3.87,1.0,CB,DIO,25.0,MoOx,ZnO,4.57,4.58,0.98,45.3,"[0, 0, 0, 0, 138, 7, 100, 9, 1, 222, 7, 219, 221, 219, 7, 222]","[[0, 0, 0, 0, 138, 7, 100, 9, 1, 222, 7, 219, 221, 219, 7, 222], [0, 0, 0, 0, 9, 138, 7, 100, 1, 222, 7, 219, 221, 219, 7, 222], [0, 0, 0, 0, 100, 9, 138, 7, 1, 222, 7, 219, 221, 219, 7, 222], [0, 0, 0, 0, 7, 100, 9, 138, 1, 222, 7, 219, 221, 219, 7, 222]]"
PBDB-T2Cl,IDIC-4F,-5.510000000000001,-3.57,-5.73,-3.93,1.0,CB,DIO,25.0,MoOx,ZnO,7.1,7.08,0.88,61.91,"[0, 0, 0, 0, 138, 7, 100, 9, 1, 217, 7, 219, 221, 219, 7, 217]","[[0, 0, 0, 0, 138, 7, 100, 9, 1, 217, 7, 219, 221, 219, 7, 217], [0, 0, 0, 0, 9, 138, 7, 100, 1, 217, 7, 219, 221, 219, 7, 217], [0, 0, 0, 0, 100, 9, 138, 7, 1, 217, 7, 219, 221, 219, 7, 217], [0, 0, 0, 0, 7, 100, 9, 138, 1, 217, 7, 219, 221, 219, 7, 217]]"
PBDB-T2Cl,IDIC-4Cl,-5.510000000000001,-3.57,-5.78,-4.02,1.0,CB,DIO,25.0,MoOx,ZnO,9.24,9.24,0.83,68.69,"[0, 0, 0, 0, 138, 7, 100, 9, 1, 231, 7, 219, 221, 219, 7, 231]","[[0, 0, 0, 0, 138, 7, 100, 9, 1, 231, 7, 219, 221, 219, 7, 231], [0, 0, 0, 0, 9, 138, 7, 100, 1, 231, 7, 219, 221, 219, 7, 231], [0, 0, 0, 0, 100, 9, 138, 7, 1, 231, 7, 219, 221, 219, 7, 231], [0, 0, 0, 0, 7, 100, 9, 138, 1, 231, 7, 219, 221, 219, 7, 231]]"
PBDB-T,IT-M,-5.297714285714285,-3.4170000000000003,-5.513571428571429,-3.808,1.0,CB,_,100.0,PEDOT:PSS,PFN-Br,11.74,11.72,0.95,72.0,"[0, 0, 0, 0, 49, 7, 100, 9, 1, 230, 79, 219, 221, 219, 79, 230]","[[0, 0, 0, 0, 49, 7, 100, 9, 1, 230, 79, 219, 221, 219, 79, 230], [0, 0, 0, 0, 9, 49, 7, 100, 1, 230, 79, 219, 221, 219, 79, 230], [0, 0, 0, 0, 100, 9, 49, 7, 1, 230, 79, 219, 221, 219, 79, 230], [0, 0, 0, 0, 7, 100, 9, 49, 1, 230, 79, 219, 221, 219, 79, 230]]"
PBDB-T,IDT-O-IC,-5.297714285714285,-3.4170000000000003,-5.77,-3.79,0.833,o-DCB,_,25.0,MoOx,ZnO,6.23,6.22,0.84,63.0,"[0, 0, 0, 0, 49, 7, 100, 9, 1, 222, 7, 245, 221, 245, 7, 222]","[[0, 0, 0, 0, 49, 7, 100, 9, 1, 222, 7, 245, 221, 245, 7, 222], [0, 0, 0, 0, 9, 49, 7, 100, 1, 222, 7, 245, 221, 245, 7, 222], [0, 0, 0, 0, 100, 9, 49, 7, 1, 222, 7, 245, 221, 245, 7, 222], [0, 0, 0, 0, 7, 100, 9, 49, 1, 222, 7, 245, 221, 245, 7, 222]]"
PBDB-T,spiro-IDT-O-IC,-5.297714285714285,-3.4170000000000003,-5.68,-3.79,0.556,o-DCB,_,25.0,MoOx,ZnO,4.74,4.71,0.83,55.0,"[0, 0, 0, 0, 49, 7, 100, 9, 1, 222, 7, 246, 221, 246, 7, 222]","[[0, 0, 0, 0, 49, 7, 100, 9, 1, 222, 7, 246, 221, 246, 7, 222], [0, 0, 0, 0, 9, 49, 7, 100, 1, 222, 7, 246, 221, 246, 7, 222], [0, 0, 0, 0, 100, 9, 49, 7, 1, 222, 7, 246, 221, 246, 7, 222], [0, 0, 0, 0, 7, 100, 9, 49, 1, 222, 7, 246, 221, 246, 7, 222]]"
PBDB-T,ICBF-O,-5.297714285714285,-3.4170000000000003,-5.7,-3.75,1.0,CB,_,25.0,PEDOT:PSS,PDINO,3.11,3.08,1.06,42.6,"[0, 0, 49, 7, 100, 9, 1, 222, 3, 221, 225, 221, 225, 221, 3, 222]","[[0, 0, 49, 7, 100, 9, 1, 222, 3, 221, 225, 221, 225, 221, 3, 222], [0, 0, 9, 49, 7, 100, 1, 222, 3, 221, 225, 221, 225, 221, 3, 222], [0, 0, 100, 9, 49, 7, 1, 222, 3, 221, 225, 221, 225, 221, 3, 222], [0, 0, 7, 100, 9, 49, 1, 222, 3, 221, 225, 221, 225, 221, 3, 222]]"
PBDB-T,ICBF,-5.297714285714285,-3.4170000000000003,-5.64,-3.8,1.0,CB,_,25.0,PEDOT:PSS,PDINO,6.07,6.13,0.99,60.1,"[0, 0, 49, 7, 100, 9, 1, 222, 7, 221, 225, 221, 225, 221, 7, 222]","[[0, 0, 49, 7, 100, 9, 1, 222, 7, 221, 225, 221, 225, 221, 7, 222], [0, 0, 9, 49, 7, 100, 1, 222, 7, 221, 225, 221, 225, 221, 7, 222], [0, 0, 100, 9, 49, 7, 1, 222, 7, 221, 225, 221, 225, 221, 7, 222], [0, 0, 7, 100, 9, 49, 1, 222, 7, 221, 225, 221, 225, 221, 7, 222]]"
PBDB-T,FICBF-O,-5.297714285714285,-3.4170000000000003,-5.72,-3.85,1.0,CB,_,25.0,PEDOT:PSS,PDINO,5.54,5.54,0.96,54.5,"[0, 0, 49, 7, 100, 9, 1, 217, 3, 221, 225, 221, 225, 221, 3, 217]","[[0, 0, 49, 7, 100, 9, 1, 217, 3, 221, 225, 221, 225, 221, 3, 217], [0, 0, 9, 49, 7, 100, 1, 217, 3, 221, 225, 221, 225, 221, 3, 217], [0, 0, 100, 9, 49, 7, 1, 217, 3, 221, 225, 221, 225, 221, 3, 217], [0, 0, 7, 100, 9, 49, 1, 217, 3, 221, 225, 221, 225, 221, 3, 217]]"
PBDB-T,FICBF,-5.297714285714285,-3.4170000000000003,-5.66,-3.88,1.0,CB,_,80.0,PEDOT:PSS,PDINO,7.41,7.41,0.87,67.0,"[0, 0, 49, 7, 100, 9, 1, 217, 7, 221, 225, 221, 225, 221, 7, 217]","[[0, 0, 49, 7, 100, 9, 1, 217, 7, 221, 225, 221, 225, 221, 7, 217], [0, 0, 9, 49, 7, 100, 1, 217, 7, 221, 225, 221, 225, 221, 7, 217], [0, 0, 100, 9, 49, 7, 1, 217, 7, 221, 225, 221, 225, 221, 7, 217], [0, 0, 7, 100, 9, 49, 1, 217, 7, 221, 225, 221, 225, 221, 7, 217]]"
PBT1-EH,IDTCN,-5.43,-3.43,-5.890000000000001,-3.93,1.0,CF,_,100.0,PEDOT:PSS,ZrAcAc,8.69,8.54,0.93,70.2,"[0, 0, 0, 0, 14, 7, 174, 9, 1, 255, 7, 219, 221, 219, 7, 255]","[[0, 0, 0, 0, 14, 7, 174, 9, 1, 255, 7, 219, 221, 219, 7, 255], [0, 0, 0, 0, 9, 14, 7, 174, 1, 255, 7, 219, 221, 219, 7, 255], [0, 0, 0, 0, 174, 9, 14, 7, 1, 255, 7, 219, 221, 219, 7, 255], [0, 0, 0, 0, 7, 174, 9, 14, 1, 255, 7, 219, 221, 219, 7, 255]]"
PBDB-T,IDT-T,-5.297714285714285,-3.4170000000000003,-5.49,-3.985,1.0,CB,_,25.0,MoOx,ZnO,6.36,6.36,0.952,59.62,"[0, 0, 49, 7, 100, 9, 1, 222, 7, 7, 219, 221, 219, 7, 7, 222]","[[0, 0, 49, 7, 100, 9, 1, 222, 7, 7, 219, 221, 219, 7, 7, 222], [0, 0, 9, 49, 7, 100, 1, 222, 7, 7, 219, 221, 219, 7, 7, 222], [0, 0, 100, 9, 49, 7, 1, 222, 7, 7, 219, 221, 219, 7, 7, 222], [0, 0, 7, 100, 9, 49, 1, 222, 7, 7, 219, 221, 219, 7, 7, 222]]"
PBDB-T,IDT-3MT,-5.297714285714285,-3.4170000000000003,-5.68,-4.16,1.0,CB,_,25.0,MoOx,ZnO,8.4,8.41,0.95,61.32,"[0, 0, 49, 7, 100, 9, 1, 222, 250, 7, 219, 221, 219, 7, 250, 222]","[[0, 0, 49, 7, 100, 9, 1, 222, 250, 7, 219, 221, 219, 7, 250, 222], [0, 0, 9, 49, 7, 100, 1, 222, 250, 7, 219, 221, 219, 7, 250, 222], [0, 0, 100, 9, 49, 7, 1, 222, 250, 7, 219, 221, 219, 7, 250, 222], [0, 0, 7, 100, 9, 49, 1, 222, 250, 7, 219, 221, 219, 7, 250, 222]]"
PBDB-T,SiIDT-IC,-5.297714285714285,-3.4170000000000003,-5.47,-3.78,1.0,CB,_,110.0,MoOx,PFN-Br,8.16,8.16,0.92,65.56,"[0, 0, 0, 0, 49, 7, 100, 9, 1, 222, 7, 251, 221, 251, 7, 222]","[[0, 0, 0, 0, 49, 7, 100, 9, 1, 222, 7, 251, 221, 251, 7, 222], [0, 0, 0, 0, 9, 49, 7, 100, 1, 222, 7, 251, 221, 251, 7, 222], [0, 0, 0, 0, 100, 9, 49, 7, 1, 222, 7, 251, 221, 251, 7, 222], [0, 0, 0, 0, 7, 100, 9, 49, 1, 222, 7, 251, 221, 251, 7, 222]]"
PBDB-T,IDIC,-5.297714285714285,-3.4170000000000003,-5.706,-4.002666666666667,1.0,CB,_,110.0,MoOx,PFN-Br,8.83,8.84,0.81,65.36,"[0, 0, 0, 0, 49, 7, 100, 9, 1, 222, 7, 234, 221, 234, 7, 222]","[[0, 0, 0, 0, 49, 7, 100, 9, 1, 222, 7, 234, 221, 234, 7, 222], [0, 0, 0, 0, 9, 49, 7, 100, 1, 222, 7, 234, 221, 234, 7, 222], [0, 0, 0, 0, 100, 9, 49, 7, 1, 222, 7, 234, 221, 234, 7, 222], [0, 0, 0, 0, 7, 100, 9, 49, 1, 222, 7, 234, 221, 234, 7, 222]]"
PBDB-T,IDTBOR,-5.297714285714285,-3.4170000000000003,-5.49,-3.93,0.5,CB,_,130.0,MoOx,ZnO/PFN-Br,7.74,7.78,0.89,54.67,"[0, 0, 49, 7, 100, 9, 1, 240, 252, 7, 234, 221, 234, 7, 252, 240]","[[0, 0, 49, 7, 100, 9, 1, 240, 252, 7, 234, 221, 234, 7, 252, 240], [0, 0, 9, 49, 7, 100, 1, 240, 252, 7, 234, 221, 234, 7, 252, 240], [0, 0, 100, 9, 49, 7, 1, 240, 252, 7, 234, 221, 234, 7, 252, 240], [0, 0, 7, 100, 9, 49, 1, 240, 252, 7, 234, 221, 234, 7, 252, 240]]"
PBDB-T,IDTBSR,-5.297714285714285,-3.4170000000000003,-5.41,-3.88,0.5,CB,_,130.0,MoOx,ZnO/PFN-Br,6.95,6.94,0.95,52.38,"[0, 0, 49, 7, 100, 9, 1, 240, 253, 7, 234, 221, 234, 7, 253, 240]","[[0, 0, 49, 7, 100, 9, 1, 240, 253, 7, 234, 221, 234, 7, 253, 240], [0, 0, 9, 49, 7, 100, 1, 240, 253, 7, 234, 221, 234, 7, 253, 240], [0, 0, 100, 9, 49, 7, 1, 240, 253, 7, 234, 221, 234, 7, 253, 240], [0, 0, 7, 100, 9, 49, 1, 240, 253, 7, 234, 221, 234, 7, 253, 240]]"
PBDB-T,TTIC,-5.297714285714285,-3.4170000000000003,-5.54,-4.109999999999999,0.667,DCB,DIO,125.0,MoOx,ZnO,10.61,10.63,0.77,62.0,"[0, 0, 0, 0, 49, 7, 100, 9, 1, 222, 7, 219, 79, 219, 7, 222]","[[0, 0, 0, 0, 49, 7, 100, 9, 1, 222, 7, 219, 79, 219, 7, 222], [0, 0, 0, 0, 9, 49, 7, 100, 1, 222, 7, 219, 79, 219, 7, 222], [0, 0, 0, 0, 100, 9, 49, 7, 1, 222, 7, 219, 79, 219, 7, 222], [0, 0, 0, 0, 7, 100, 9, 49, 1, 222, 7, 219, 79, 219, 7, 222]]"
PBDB-T,TTIC-M,-5.297714285714285,-3.4170000000000003,-5.49,-4.03,0.667,DCB,DIO,175.0,MoOx,ZnO,11.48,11.49,0.8,70.0,"[0, 0, 0, 0, 49, 7, 100, 9, 1, 230, 7, 219, 79, 219, 7, 230]","[[0, 0, 0, 0, 49, 7, 100, 9, 1, 230, 7, 219, 79, 219, 7, 230], [0, 0, 0, 0, 9, 49, 7, 100, 1, 230, 7, 219, 79, 219, 7, 230], [0, 0, 0, 0, 100, 9, 49, 7, 1, 230, 7, 219, 79, 219, 7, 230], [0, 0, 0, 0, 7, 100, 9, 49, 1, 230, 7, 219, 79, 219, 7, 230]]"
J52,ITIC,-5.218571428571429,-3.341428571428572,-5.574146341463415,-3.915,0.667,CF,_,25.0,PEDOT:PSS,PDINO,3.78,3.77,0.803,43.2,"[0, 0, 0, 0, 10, 7, 8, 9, 1, 222, 79, 219, 221, 219, 79, 222]","[[0, 0, 0, 0, 10, 7, 8, 9, 1, 222, 79, 219, 221, 219, 79, 222], [0, 0, 0, 0, 9, 10, 7, 8, 1, 222, 79, 219, 221, 219, 79, 222], [0, 0, 0, 0, 8, 9, 10, 7, 1, 222, 79, 219, 221, 219, 79, 222], [0, 0, 0, 0, 7, 8, 9, 10, 1, 222, 79, 219, 221, 219, 79, 222]]"
J52-Cl,ITIC,-5.53,-5.38,-5.574146341463415,-3.915,0.667,CF,_,25.0,PEDOT:PSS,PDINO,11.53,11.52,0.956,70.2,"[0, 0, 0, 0, 175, 7, 8, 9, 1, 222, 79, 219, 221, 219, 79, 222]","[[0, 0, 0, 0, 175, 7, 8, 9, 1, 222, 79, 219, 221, 219, 79, 222], [0, 0, 0, 0, 9, 175, 7, 8, 1, 222, 79, 219, 221, 219, 79, 222], [0, 0, 0, 0, 8, 9, 175, 7, 1, 222, 79, 219, 221, 219, 79, 222], [0, 0, 0, 0, 7, 8, 9, 175, 1, 222, 79, 219, 221, 219, 79, 222]]"
PBDB-T,IDTT2F,-5.297714285714285,-3.4170000000000003,-5.57,-4.03,1.0,DCB,_,25.0,MoOx,ZnO,8.85,8.85,0.81,59.0,"[0, 0, 49, 7, 100, 9, 1, 217, 7, 7, 219, 221, 219, 7, 7, 217]","[[0, 0, 49, 7, 100, 9, 1, 217, 7, 7, 219, 221, 219, 7, 7, 217], [0, 0, 9, 49, 7, 100, 1, 217, 7, 7, 219, 221, 219, 7, 7, 217], [0, 0, 100, 9, 49, 7, 1, 217, 7, 7, 219, 221, 219, 7, 7, 217], [0, 0, 7, 100, 9, 49, 1, 217, 7, 7, 219, 221, 219, 7, 7, 217]]"
PBDB-T,IDTOT2F,-5.297714285714285,-3.4170000000000003,-5.54,-3.94,1.0,DCB,_,25.0,MoOx,ZnO,12.79,12.77,0.85,72.0,"[0, 0, 49, 7, 100, 9, 1, 217, 7, 254, 219, 221, 219, 254, 7, 217]","[[0, 0, 49, 7, 100, 9, 1, 217, 7, 254, 219, 221, 219, 254, 7, 217], [0, 0, 9, 49, 7, 100, 1, 217, 7, 254, 219, 221, 219, 254, 7, 217], [0, 0, 100, 9, 49, 7, 1, 217, 7, 254, 219, 221, 219, 254, 7, 217], [0, 0, 7, 100, 9, 49, 1, 217, 7, 254, 219, 221, 219, 254, 7, 217]]"
PBDB-T,IDTIC,-5.297714285714285,-3.4170000000000003,-5.885,-3.91,1.0,CB,DIO,25.0,MoOx,ZnO,6.05,6.03,0.89,61.9,"[0, 0, 0, 0, 49, 7, 100, 9, 1, 222, 7, 360, 221, 361, 7, 222]","[[0, 0, 0, 0, 49, 7, 100, 9, 1, 222, 7, 360, 221, 361, 7, 222], [0, 0, 0, 0, 9, 49, 7, 100, 1, 222, 7, 360, 221, 361, 7, 222], [0, 0, 0, 0, 100, 9, 49, 7, 1, 222, 7, 360, 221, 361, 7, 222], [0, 0, 0, 0, 7, 100, 9, 49, 1, 222, 7, 360, 221, 361, 7, 222]]"
PBDB-T,ITIC,-5.297714285714285,-3.4170000000000003,-5.574146341463415,-3.915,1.0,CB,_,25.0,PEDOT:PSS,N719:PrC60MAI,9.94,9.94,0.897,65.5,"[0, 0, 0, 0, 49, 7, 100, 9, 1, 222, 79, 219, 221, 219, 79, 222]","[[0, 0, 0, 0, 49, 7, 100, 9, 1, 222, 79, 219, 221, 219, 79, 222], [0, 0, 0, 0, 9, 49, 7, 100, 1, 222, 79, 219, 221, 219, 79, 222], [0, 0, 0, 0, 100, 9, 49, 7, 1, 222, 79, 219, 221, 219, 79, 222], [0, 0, 0, 0, 7, 100, 9, 49, 1, 222, 79, 219, 221, 219, 79, 222]]"
PBDB-T,ITCT,-5.297714285714285,-3.4170000000000003,-5.596666666666667,-3.796666666666667,1.0,CB,_,25.0,PEDOT:PSS,N719:PrC60MAI,10.99,10.99,0.85,72.3,"[0, 0, 0, 0, 49, 7, 100, 9, 1, 255, 79, 219, 221, 219, 79, 255]","[[0, 0, 0, 0, 49, 7, 100, 9, 1, 255, 79, 219, 221, 219, 79, 255], [0, 0, 0, 0, 9, 49, 7, 100, 1, 255, 79, 219, 221, 219, 79, 255], [0, 0, 0, 0, 100, 9, 49, 7, 1, 255, 79, 219, 221, 219, 79, 255], [0, 0, 0, 0, 7, 100, 9, 49, 1, 255, 79, 219, 221, 219, 79, 255]]"