Donor,Acceptor,HOMO_D_eV,LUMO_D_eV,HOMO_A_eV,LUMO_A_eV,D_A_ratio_m_m,solvent,solvent_additive,annealing_temperature,hole_contact_layer,electron_contact_layer,PCE_percent,calc_PCE_percent,Voc_V,FF_percent,DA_manual_tokenized,DA_manual_tokenized_aug
PBTA-TF,IT-M,-5.36,-3.4200000000000004,-5.513571428571429,-3.808,1.0,o-xylene,PN,25.0,PEDOT:PSS,PFN-Br,13.1,13.09,0.97,72.0,"[0, 0, 0, 0, 192, 7, 193, 9, 1, 230, 79, 219, 221, 219, 79, 230]","[[0, 0, 0, 0, 192, 7, 193, 9, 1, 230, 79, 219, 221, 219, 79, 230], [0, 0, 0, 0, 9, 192, 7, 193, 1, 230, 79, 219, 221, 219, 79, 230], [0, 0, 0, 0, 193, 9, 192, 7, 1, 230, 79, 219, 221, 219, 79, 230], [0, 0, 0, 0, 7, 193, 9, 192, 1, 230, 79, 219, 221, 219, 79, 230]]"
PBDB-T,ITIC,-5.297714285714285,-3.4170000000000003,-5.574146341463415,-3.915,1.0,CB,DIO,160.0,MoOx,ZnO,11.21,11.21,0.899,74.2,"[0, 0, 0, 0, 49, 7, 100, 9, 1, 222, 79, 219, 221, 219, 79, 222]","[[0, 0, 0, 0, 49, 7, 100, 9, 1, 222, 79, 219, 221, 219, 79, 222], [0, 0, 0, 0, 9, 49, 7, 100, 1, 222, 79, 219, 221, 219, 79, 222], [0, 0, 0, 0, 100, 9, 49, 7, 1, 222, 79, 219, 221, 219, 79, 222], [0, 0, 0, 0, 7, 100, 9, 49, 1, 222, 79, 219, 221, 219, 79, 222]]"
PBDB-T-SF,IT-4F,-5.41,-3.62,-5.66875,-4.060416666666667,1.0,CB,DIO,25.0,MoOx,ZnO,13.1,13.1,0.88,71.3,"[0, 0, 0, 0, 99, 7, 100, 7, 1, 217, 79, 219, 221, 219, 79, 217]","[[0, 0, 0, 0, 99, 7, 100, 7, 1, 217, 79, 219, 221, 219, 79, 217], [0, 0, 0, 0, 7, 99, 7, 100, 1, 217, 79, 219, 221, 219, 79, 217], [0, 0, 0, 0, 100, 7, 99, 7, 1, 217, 79, 219, 221, 219, 79, 217], [0, 0, 0, 0, 7, 100, 7, 99, 1, 217, 79, 219, 221, 219, 79, 217]]"
PBDB-T,ITIC,-5.297714285714285,-3.4170000000000003,-5.574146341463415,-3.915,1.0,CB,DIO,25.0,MoOx,ZnO,11.05,11.05,0.9,72.1,"[0, 0, 0, 0, 49, 7, 100, 9, 1, 222, 79, 219, 221, 219, 79, 222]","[[0, 0, 0, 0, 49, 7, 100, 9, 1, 222, 79, 219, 221, 219, 79, 222], [0, 0, 0, 0, 9, 49, 7, 100, 1, 222, 79, 219, 221, 219, 79, 222], [0, 0, 0, 0, 100, 9, 49, 7, 1, 222, 79, 219, 221, 219, 79, 222], [0, 0, 0, 0, 7, 100, 9, 49, 1, 222, 79, 219, 221, 219, 79, 222]]"
PCDTBT-C12,SM1,-5.23,-3.26,-5.93,-3.5,0.5,DCB,_,90.0,PEDOT:PSS,LiF,2.78,2.79,1.04,56.0,"[0, 0, 0, 0, 0, 0, 93, 7, 74, 9, 1, 271, 7, 221, 7, 271]","[[0, 0, 0, 0, 0, 0, 93, 7, 74, 9, 1, 271, 7, 221, 7, 271], [0, 0, 0, 0, 0, 0, 9, 93, 7, 74, 1, 271, 7, 221, 7, 271], [0, 0, 0, 0, 0, 0, 74, 9, 93, 7, 1, 271, 7, 221, 7, 271], [0, 0, 0, 0, 0, 0, 7, 74, 9, 93, 1, 271, 7, 221, 7, 271]]"
PCDTBT-C12,SM2,-5.23,-3.26,-5.98,-3.62,0.5,DCB,_,90.0,PEDOT:PSS,LiF,0.74,0.74,1.11,30.0,"[0, 0, 0, 0, 0, 0, 93, 7, 74, 9, 1, 272, 7, 273, 7, 272]","[[0, 0, 0, 0, 0, 0, 93, 7, 74, 9, 1, 272, 7, 273, 7, 272], [0, 0, 0, 0, 0, 0, 9, 93, 7, 74, 1, 272, 7, 273, 7, 272], [0, 0, 0, 0, 0, 0, 74, 9, 93, 7, 1, 272, 7, 273, 7, 272], [0, 0, 0, 0, 0, 0, 7, 74, 9, 93, 1, 272, 7, 273, 7, 272]]"
PCDTBT-C12,SM3,-5.23,-3.26,-5.95,-3.68,0.5,DCB,_,90.0,PEDOT:PSS,LiF,0.56,0.56,1.09,30.0,"[0, 0, 0, 0, 0, 0, 93, 7, 74, 9, 1, 271, 7, 274, 7, 271]","[[0, 0, 0, 0, 0, 0, 93, 7, 74, 9, 1, 271, 7, 274, 7, 271], [0, 0, 0, 0, 0, 0, 9, 93, 7, 74, 1, 271, 7, 274, 7, 271], [0, 0, 0, 0, 0, 0, 74, 9, 93, 7, 1, 271, 7, 274, 7, 271], [0, 0, 0, 0, 0, 0, 7, 74, 9, 93, 1, 271, 7, 274, 7, 271]]"
PCDTBT-C12,SM4,-5.23,-3.26,-5.8,-3.65,0.5,DCB,_,90.0,PEDOT:PSS,LiF,0.13,0.13,1.24,28.0,"[0, 0, 0, 0, 0, 0, 93, 7, 74, 9, 1, 271, 7, 275, 7, 271]","[[0, 0, 0, 0, 0, 0, 93, 7, 74, 9, 1, 271, 7, 275, 7, 271], [0, 0, 0, 0, 0, 0, 9, 93, 7, 74, 1, 271, 7, 275, 7, 271], [0, 0, 0, 0, 0, 0, 74, 9, 93, 7, 1, 271, 7, 275, 7, 271], [0, 0, 0, 0, 0, 0, 7, 74, 9, 93, 1, 271, 7, 275, 7, 271]]"
PTB7,SFBRCN,-5.175,-3.435,-5.93,-3.86,0.833,CB,DIO,25.0,MoOx,ZnO,7.34,7.15,0.85,60.7,"[0, 0, 0, 0, 0, 0, 37, 101, 1, 236, 56, 221, 276, 221, 56, 236]","[[0, 0, 0, 0, 0, 0, 37, 101, 1, 236, 56, 221, 276, 221, 56, 236], [0, 0, 0, 0, 0, 0, 101, 37, 1, 236, 56, 221, 276, 221, 56, 236]]"
PTB7-Th,SFBRCN,-5.204782608695651,-3.5391891891891896,-5.93,-3.86,0.833,CB,DIO,25.0,MoOx,ZnO,9.9,9.93,0.9,64.0,"[0, 0, 0, 0, 0, 0, 49, 101, 1, 236, 56, 221, 276, 221, 56, 236]","[[0, 0, 0, 0, 0, 0, 49, 101, 1, 236, 56, 221, 276, 221, 56, 236], [0, 0, 0, 0, 0, 0, 101, 49, 1, 236, 56, 221, 276, 221, 56, 236]]"
PBDB-T,ITIC,-5.297714285714285,-3.4170000000000003,-5.574146341463415,-3.915,1.0,CB,DIO,100.0,PEDOT:PSS,PFN-Br,10.6,10.59,0.93,67.0,"[0, 0, 0, 0, 49, 7, 100, 9, 1, 222, 79, 219, 221, 219, 79, 222]","[[0, 0, 0, 0, 49, 7, 100, 9, 1, 222, 79, 219, 221, 219, 79, 222], [0, 0, 0, 0, 9, 49, 7, 100, 1, 222, 79, 219, 221, 219, 79, 222], [0, 0, 0, 0, 100, 9, 49, 7, 1, 222, 79, 219, 221, 219, 79, 222], [0, 0, 0, 0, 7, 100, 9, 49, 1, 222, 79, 219, 221, 219, 79, 222]]"
PBDB-T,ITCC,-5.297714285714285,-3.4170000000000003,-5.47,-3.76,1.0,CB,DIO,100.0,PEDOT:PSS,PFN-Br,11.4,11.4,1.01,71.0,"[0, 0, 0, 0, 49, 7, 100, 9, 1, 270, 79, 219, 221, 219, 79, 270]","[[0, 0, 0, 0, 49, 7, 100, 9, 1, 270, 79, 219, 221, 219, 79, 270], [0, 0, 0, 0, 9, 49, 7, 100, 1, 270, 79, 219, 221, 219, 79, 270], [0, 0, 0, 0, 100, 9, 49, 7, 1, 270, 79, 219, 221, 219, 79, 270], [0, 0, 0, 0, 7, 100, 9, 49, 1, 270, 79, 219, 221, 219, 79, 270]]"
PBDTTT-E-T,IEIC,-5.09,-3.48,-5.455,-3.8625,0.667,CB,DIO,100.0,PEDOT:PSS,PFN-Br,4.9,4.95,0.9,47.0,"[0, 0, 0, 0, 49, 102, 1, 222, 64, 7, 219, 221, 219, 7, 64, 222]","[[0, 0, 0, 0, 49, 102, 1, 222, 64, 7, 219, 221, 219, 7, 64, 222], [0, 0, 0, 0, 102, 49, 1, 222, 64, 7, 219, 221, 219, 7, 64, 222]]"
PBDTTT-E-T,IEICO,-5.09,-3.48,-5.32,-3.95,1.0,CB,DIO,100.0,PEDOT:PSS,PFN-Br,8.4,8.42,0.82,58.0,"[0, 0, 0, 0, 49, 102, 1, 222, 229, 7, 219, 221, 219, 7, 229, 222]","[[0, 0, 0, 0, 49, 102, 1, 222, 229, 7, 219, 221, 219, 7, 229, 222], [0, 0, 0, 0, 102, 49, 1, 222, 229, 7, 219, 221, 219, 7, 229, 222]]"
PBTT,IEICO,-5.19,-3.11,-5.32,-3.95,1.0,CB,DIO,100.0,PEDOT:PSS,PFN-Br,9.5,9.44,0.86,61.3,"[0, 0, 0, 0, 49, 171, 1, 222, 229, 7, 219, 221, 219, 7, 229, 222]","[[0, 0, 0, 0, 49, 171, 1, 222, 229, 7, 219, 221, 219, 7, 229, 222], [0, 0, 0, 0, 171, 49, 1, 222, 229, 7, 219, 221, 219, 7, 229, 222]]"
PTB7-Th,IEICO,-5.204782608695651,-3.5391891891891896,-5.32,-3.95,1.0,CB,DIO,100.0,PEDOT:PSS,PFN-Br,7.3,7.32,0.91,60.5,"[0, 0, 0, 0, 49, 101, 1, 222, 229, 7, 219, 221, 219, 7, 229, 222]","[[0, 0, 0, 0, 49, 101, 1, 222, 229, 7, 219, 221, 219, 7, 229, 222], [0, 0, 0, 0, 101, 49, 1, 222, 229, 7, 219, 221, 219, 7, 229, 222]]"
PBDB-T,NITI,-5.297714285714285,-3.4170000000000003,-5.68,-3.84,1.0,CB,_,25.0,PEDOT:PSS,PNDIT-F3N,9.49,12.86,0.86,84.0,"[0, 0, 0, 0, 49, 7, 100, 9, 1, 217, 268, 221, 277, 221, 268, 217]","[[0, 0, 0, 0, 49, 7, 100, 9, 1, 217, 268, 221, 277, 221, 268, 217], [0, 0, 0, 0, 9, 49, 7, 100, 1, 217, 268, 221, 277, 221, 268, 217], [0, 0, 0, 0, 100, 9, 49, 7, 1, 217, 268, 221, 277, 221, 268, 217], [0, 0, 0, 0, 7, 100, 9, 49, 1, 217, 268, 221, 277, 221, 268, 217]]"
PTB7-Th,IHIC,-5.204782608695651,-3.5391891891891896,-5.45,-3.93,0.667,DCB,CN,25.0,MoOx,ZnO,9.41,7.75,0.744,60.9,"[0, 0, 0, 0, 0, 0, 49, 101, 1, 222, 7, 219, 79, 219, 7, 222]","[[0, 0, 0, 0, 0, 0, 49, 101, 1, 222, 7, 219, 79, 219, 7, 222], [0, 0, 0, 0, 0, 0, 101, 49, 1, 222, 7, 219, 79, 219, 7, 222]]"
P3HT,N3,-5.057777777777777,-2.989444444444445,-5.76,-3.97,0.833,o-DCB,_,25.0,PEDOT:PSS,Ca,4.62,4.63,0.87,60.0,"[0, 0, 0, 0, 0, 0, 41, 40, 40, 194, 1, 240, 7, 363, 7, 240]","[[0, 0, 0, 0, 0, 0, 41, 40, 40, 194, 1, 240, 7, 363, 7, 240], [0, 0, 0, 0, 0, 0, 194, 41, 40, 40, 1, 240, 7, 363, 7, 240], [0, 0, 0, 0, 0, 0, 40, 194, 41, 40, 1, 240, 7, 363, 7, 240], [0, 0, 0, 0, 0, 0, 40, 40, 194, 41, 1, 240, 7, 363, 7, 240]]"
P3HT,N4,-5.057777777777777,-2.989444444444445,-5.54,-3.67,0.833,o-DCB,_,25.0,PEDOT:PSS,Ca,3.52,3.53,0.91,58.0,"[0, 0, 0, 0, 0, 0, 41, 40, 40, 194, 1, 364, 7, 363, 7, 364]","[[0, 0, 0, 0, 0, 0, 41, 40, 40, 194, 1, 364, 7, 363, 7, 364], [0, 0, 0, 0, 0, 0, 194, 41, 40, 40, 1, 364, 7, 363, 7, 364], [0, 0, 0, 0, 0, 0, 40, 194, 41, 40, 1, 364, 7, 363, 7, 364], [0, 0, 0, 0, 0, 0, 40, 40, 194, 41, 1, 364, 7, 363, 7, 364]]"
P3HT,N5,-5.057777777777777,-2.989444444444445,-6.34,-3.73,0.833,o-DCB,_,25.0,PEDOT:PSS,Ca,4.03,4.02,0.97,59.0,"[0, 0, 0, 0, 41, 40, 40, 194, 1, 222, 7, 221, 280, 221, 7, 222]","[[0, 0, 0, 0, 41, 40, 40, 194, 1, 222, 7, 221, 280, 221, 7, 222], [0, 0, 0, 0, 194, 41, 40, 40, 1, 222, 7, 221, 280, 221, 7, 222], [0, 0, 0, 0, 40, 194, 41, 40, 1, 222, 7, 221, 280, 221, 7, 222], [0, 0, 0, 0, 40, 40, 194, 41, 1, 222, 7, 221, 280, 221, 7, 222]]"
P3HT,N6,-5.057777777777777,-2.989444444444445,-6.38,-3.98,0.833,o-DCB,_,25.0,PEDOT:PSS,Ca,6.11,6.11,0.9,63.0,"[0, 0, 0, 0, 0, 0, 41, 40, 40, 194, 1, 365, 7, 363, 7, 365]","[[0, 0, 0, 0, 0, 0, 41, 40, 40, 194, 1, 365, 7, 363, 7, 365], [0, 0, 0, 0, 0, 0, 194, 41, 40, 40, 1, 365, 7, 363, 7, 365], [0, 0, 0, 0, 0, 0, 40, 194, 41, 40, 1, 365, 7, 363, 7, 365], [0, 0, 0, 0, 0, 0, 40, 40, 194, 41, 1, 365, 7, 363, 7, 365]]"
PTB7-Th,DTPC-IC,-5.204782608695651,-3.5391891891891896,-5.21,-3.97,0.667,DCB,_,25.0,PEDOT:PSS,C60-bissalt,3.12,3.12,0.863,42.4,"[0, 0, 0, 0, 0, 0, 49, 101, 1, 222, 7, 223, 224, 223, 7, 222]","[[0, 0, 0, 0, 0, 0, 49, 101, 1, 222, 7, 223, 224, 223, 7, 222], [0, 0, 0, 0, 0, 0, 101, 49, 1, 222, 7, 223, 224, 223, 7, 222]]"
PTB7-Th,DTPC-DFIC,-5.204782608695651,-3.5391891891891896,-5.31,-4.1,0.667,DCB,DIO,25.0,PEDOT:PSS,C60-bissalt,10.21,10.21,0.76,61.3,"[0, 0, 0, 0, 0, 0, 49, 101, 1, 217, 7, 223, 224, 223, 7, 217]","[[0, 0, 0, 0, 0, 0, 49, 101, 1, 217, 7, 223, 224, 223, 7, 217], [0, 0, 0, 0, 0, 0, 101, 49, 1, 217, 7, 223, 224, 223, 7, 217]]"
PBDB-T,DICTF,-5.297714285714285,-3.4170000000000003,-5.67,-3.79,0.833,CB,DIO,25.0,PEDOT:PSS,PDIN,5.93,5.65,0.93,59.0,"[0, 0, 0, 0, 49, 7, 100, 9, 1, 222, 7, 221, 225, 221, 7, 222]","[[0, 0, 0, 0, 49, 7, 100, 9, 1, 222, 7, 221, 225, 221, 7, 222], [0, 0, 0, 0, 9, 49, 7, 100, 1, 222, 7, 221, 225, 221, 7, 222], [0, 0, 0, 0, 100, 9, 49, 7, 1, 222, 7, 221, 225, 221, 7, 222], [0, 0, 0, 0, 7, 100, 9, 49, 1, 222, 7, 221, 225, 221, 7, 222]]"
PBDB-T,FDICTF,-5.297714285714285,-3.4170000000000003,-5.43,-3.71,0.833,CB,DIO,25.0,PEDOT:PSS,PDIN,10.06,9.81,0.94,66.0,"[0, 0, 49, 7, 100, 9, 1, 222, 7, 225, 221, 225, 221, 225, 7, 222]","[[0, 0, 49, 7, 100, 9, 1, 222, 7, 225, 221, 225, 221, 225, 7, 222], [0, 0, 9, 49, 7, 100, 1, 222, 7, 225, 221, 225, 221, 225, 7, 222], [0, 0, 100, 9, 49, 7, 1, 222, 7, 225, 221, 225, 221, 225, 7, 222], [0, 0, 7, 100, 9, 49, 1, 222, 7, 225, 221, 225, 221, 225, 7, 222]]"
P3HT,MPU1,-5.057777777777777,-2.989444444444445,-5.81,-3.99,1.0,CF,DIO,40.0,PEDOT:PSS,PFN,1.14,1.13,0.64,42.0,"[0, 0, 0, 0, 0, 0, 41, 40, 40, 194, 1, 240, 7, 278, 7, 240]","[[0, 0, 0, 0, 0, 0, 41, 40, 40, 194, 1, 240, 7, 278, 7, 240], [0, 0, 0, 0, 0, 0, 194, 41, 40, 40, 1, 240, 7, 278, 7, 240], [0, 0, 0, 0, 0, 0, 40, 194, 41, 40, 1, 240, 7, 278, 7, 240], [0, 0, 0, 0, 0, 0, 40, 40, 194, 41, 1, 240, 7, 278, 7, 240]]"
P_dFBT-DTS,MPU1,-5.31,-3.33,-5.81,-3.99,1.0,CF,DIO,40.0,PEDOT:PSS,PFN,4.17,4.17,1.04,48.0,"[0, 0, 0, 0, 0, 0, 103, 104, 105, 106, 1, 240, 7, 278, 7, 240]","[[0, 0, 0, 0, 0, 0, 103, 104, 105, 106, 1, 240, 7, 278, 7, 240], [0, 0, 0, 0, 0, 0, 106, 103, 104, 105, 1, 240, 7, 278, 7, 240], [0, 0, 0, 0, 0, 0, 105, 106, 103, 104, 1, 240, 7, 278, 7, 240], [0, 0, 0, 0, 0, 0, 104, 105, 106, 103, 1, 240, 7, 278, 7, 240]]"
PBDB-T,IDT-BC6,-5.297714285714285,-3.4170000000000003,-5.55,-3.83,1.0,o-DCB,_,25.0,MoOx,ZnO,2.3,2.28,0.92,44.0,"[0, 0, 49, 7, 100, 9, 1, 222, 366, 7, 219, 221, 219, 7, 366, 222]","[[0, 0, 49, 7, 100, 9, 1, 222, 366, 7, 219, 221, 219, 7, 366, 222], [0, 0, 9, 49, 7, 100, 1, 222, 366, 7, 219, 221, 219, 7, 366, 222], [0, 0, 100, 9, 49, 7, 1, 222, 366, 7, 219, 221, 219, 7, 366, 222], [0, 0, 7, 100, 9, 49, 1, 222, 366, 7, 219, 221, 219, 7, 366, 222]]"
PBDB-T,IDT-BOC6,-5.297714285714285,-3.4170000000000003,-5.51,-3.78,1.0,o-DCB,DIO,25.0,MoOx,ZnO,9.6,9.56,1.01,54.0,"[0, 0, 49, 7, 100, 9, 1, 222, 367, 7, 219, 221, 219, 7, 367, 222]","[[0, 0, 49, 7, 100, 9, 1, 222, 367, 7, 219, 221, 219, 7, 367, 222], [0, 0, 9, 49, 7, 100, 1, 222, 367, 7, 219, 221, 219, 7, 367, 222], [0, 0, 100, 9, 49, 7, 1, 222, 367, 7, 219, 221, 219, 7, 367, 222], [0, 0, 7, 100, 9, 49, 1, 222, 367, 7, 219, 221, 219, 7, 367, 222]]"
PTB7-Th,ITIC3,-5.204782608695651,-3.5391891891891896,-5.54,-3.9,0.667,CF,_,25.0,MoOx,ZnO,8.09,8.09,0.763,63.1,"[0, 0, 0, 0, 0, 0, 49, 101, 1, 264, 79, 219, 221, 219, 79, 264]","[[0, 0, 0, 0, 0, 0, 49, 101, 1, 264, 79, 219, 221, 219, 79, 264], [0, 0, 0, 0, 0, 0, 101, 49, 1, 264, 79, 219, 221, 219, 79, 264]]"
PTB7-Th,FOIC,-5.204782608695651,-3.5391891891891896,-5.36,-3.92,0.667,CF,_,25.0,MoOx,ZnO,12.0,11.97,0.743,67.1,"[0, 0, 0, 0, 0, 0, 49, 101, 1, 264, 79, 219, 79, 219, 79, 264]","[[0, 0, 0, 0, 0, 0, 49, 101, 1, 264, 79, 219, 79, 219, 79, 264], [0, 0, 0, 0, 0, 0, 101, 49, 1, 264, 79, 219, 79, 219, 79, 264]]"
P3HT,ATT-3,-5.057777777777777,-2.989444444444445,-5.32,-3.4,1.25,CF,_,130.0,PEDOT:PSS,Ca,6.26,6.28,0.927,62.0,"[0, 0, 41, 40, 40, 194, 1, 240, 336, 7, 219, 221, 219, 7, 336, 240]","[[0, 0, 41, 40, 40, 194, 1, 240, 336, 7, 219, 221, 219, 7, 336, 240], [0, 0, 194, 41, 40, 40, 1, 240, 336, 7, 219, 221, 219, 7, 336, 240], [0, 0, 40, 194, 41, 40, 1, 240, 336, 7, 219, 221, 219, 7, 336, 240], [0, 0, 40, 40, 194, 41, 1, 240, 336, 7, 219, 221, 219, 7, 336, 240]]"
PBDB-T,IT-O1,-5.297714285714285,-3.4170000000000003,-5.38,-3.33,1.0,CB,_,130.0,PEDOT:PSS,PFN-Br,11.6,11.62,0.93,72.0,"[0, 0, 0, 0, 49, 7, 100, 9, 1, 281, 79, 219, 221, 219, 79, 281]","[[0, 0, 0, 0, 49, 7, 100, 9, 1, 281, 79, 219, 221, 219, 79, 281], [0, 0, 0, 0, 9, 49, 7, 100, 1, 281, 79, 219, 221, 219, 79, 281], [0, 0, 0, 0, 100, 9, 49, 7, 1, 281, 79, 219, 221, 219, 79, 281], [0, 0, 0, 0, 7, 100, 9, 49, 1, 281, 79, 219, 221, 219, 79, 281]]"
PBDB-T,IT-O2,-5.297714285714285,-3.4170000000000003,-5.37,-3.31,1.0,CB,_,130.0,PEDOT:PSS,PFN-Br,9.3,9.31,0.97,62.6,"[0, 0, 0, 0, 49, 7, 100, 9, 1, 282, 79, 219, 221, 219, 79, 282]","[[0, 0, 0, 0, 49, 7, 100, 9, 1, 282, 79, 219, 221, 219, 79, 282], [0, 0, 0, 0, 9, 49, 7, 100, 1, 282, 79, 219, 221, 219, 79, 282], [0, 0, 0, 0, 100, 9, 49, 7, 1, 282, 79, 219, 221, 219, 79, 282], [0, 0, 0, 0, 7, 100, 9, 49, 1, 282, 79, 219, 221, 219, 79, 282]]"
PBDB-T,IT-O3,-5.297714285714285,-3.4170000000000003,-5.36,-3.31,1.0,CB,_,130.0,PEDOT:PSS,PFN-Br,4.9,4.94,0.98,51.4,"[0, 0, 0, 0, 49, 7, 100, 9, 1, 283, 79, 219, 221, 219, 79, 283]","[[0, 0, 0, 0, 49, 7, 100, 9, 1, 283, 79, 219, 221, 219, 79, 283], [0, 0, 0, 0, 9, 49, 7, 100, 1, 283, 79, 219, 221, 219, 79, 283], [0, 0, 0, 0, 100, 9, 49, 7, 1, 283, 79, 219, 221, 219, 79, 283], [0, 0, 0, 0, 7, 100, 9, 49, 1, 283, 79, 219, 221, 219, 79, 283]]"
PBDB-T,IT-O4,-5.297714285714285,-3.4170000000000003,-5.35,-3.3,1.0,CB,_,130.0,PEDOT:PSS,PFN-Br,4.2,4.17,0.95,47.9,"[0, 0, 0, 0, 49, 7, 100, 9, 1, 284, 79, 219, 221, 219, 79, 284]","[[0, 0, 0, 0, 49, 7, 100, 9, 1, 284, 79, 219, 221, 219, 79, 284], [0, 0, 0, 0, 9, 49, 7, 100, 1, 284, 79, 219, 221, 219, 79, 284], [0, 0, 0, 0, 100, 9, 49, 7, 1, 284, 79, 219, 221, 219, 79, 284], [0, 0, 0, 0, 7, 100, 9, 49, 1, 284, 79, 219, 221, 219, 79, 284]]"
PTPDBDT,ITIC,-5.6,-3.75,-5.574146341463415,-3.915,1.0,CF:n-hexane (9:1),_,25.0,PEDOT:PSS,MoOx,6.4,6.39,1.04,58.0,"[0, 0, 0, 0, 0, 0, 49, 110, 1, 222, 79, 219, 221, 219, 79, 222]","[[0, 0, 0, 0, 0, 0, 49, 110, 1, 222, 79, 219, 221, 219, 79, 222], [0, 0, 0, 0, 0, 0, 110, 49, 1, 222, 79, 219, 221, 219, 79, 222]]"
PTPDBDT,F-ITIC,-5.6,-3.75,-5.65,-4.09,1.0,CF:n-hexane (9:1),_,150.0,PEDOT:PSS,MoOx,8.8,8.75,0.94,66.0,"[0, 0, 0, 0, 0, 0, 49, 110, 1, 264, 79, 219, 221, 219, 79, 264]","[[0, 0, 0, 0, 0, 0, 49, 110, 1, 264, 79, 219, 221, 219, 79, 264], [0, 0, 0, 0, 0, 0, 110, 49, 1, 264, 79, 219, 221, 219, 79, 264]]"
PTPDBDT,Cl-ITIC,-5.6,-3.75,-5.7,-4.14,1.0,CF:n-hexane (9:1),_,150.0,PEDOT:PSS,MoOx,9.5,9.53,0.94,65.0,"[0, 0, 0, 0, 0, 0, 49, 110, 1, 368, 79, 219, 221, 219, 79, 368]","[[0, 0, 0, 0, 0, 0, 49, 110, 1, 368, 79, 219, 221, 219, 79, 368], [0, 0, 0, 0, 0, 0, 110, 49, 1, 368, 79, 219, 221, 219, 79, 368]]"
PTPDBDT,Br-ITIC,-5.6,-3.75,-5.73,-4.2,1.0,CF:n-hexane (9:1),_,150.0,PEDOT:PSS,MoOx,9.4,9.45,0.93,66.0,"[0, 0, 0, 0, 0, 0, 49, 110, 1, 292, 79, 219, 221, 219, 79, 292]","[[0, 0, 0, 0, 0, 0, 49, 110, 1, 292, 79, 219, 221, 219, 79, 292], [0, 0, 0, 0, 0, 0, 110, 49, 1, 292, 79, 219, 221, 219, 79, 292]]"
PTPDBDT,I-ITIC,-5.6,-3.75,-5.68,-4.14,1.0,CF:n-hexane (9:1),_,150.0,PEDOT:PSS,MoOx,8.9,8.77,0.93,65.0,"[0, 0, 0, 0, 0, 0, 49, 110, 1, 293, 79, 219, 221, 219, 79, 293]","[[0, 0, 0, 0, 0, 0, 49, 110, 1, 293, 79, 219, 221, 219, 79, 293], [0, 0, 0, 0, 0, 0, 110, 49, 1, 293, 79, 219, 221, 219, 79, 293]]"
PBDB-T,NFBDT,-5.297714285714285,-3.4170000000000003,-5.400000000000001,-3.83,1.25,CF,_,25.0,PEDOT:PSS,PDIN,10.15,9.93,0.863,66.3,"[0, 0, 49, 7, 100, 9, 1, 222, 7, 219, 218, 221, 218, 219, 7, 222]","[[0, 0, 49, 7, 100, 9, 1, 222, 7, 219, 218, 221, 218, 219, 7, 222], [0, 0, 9, 49, 7, 100, 1, 222, 7, 219, 218, 221, 218, 219, 7, 222], [0, 0, 100, 9, 49, 7, 1, 222, 7, 219, 218, 221, 218, 219, 7, 222], [0, 0, 7, 100, 9, 49, 1, 222, 7, 219, 218, 221, 218, 219, 7, 222]]"
PBDB-T,NCBDT,-5.297714285714285,-3.4170000000000003,-5.36,-3.89,1.25,CF,_,25.0,PEDOT:PSS,PDINO,11.62,11.57,0.835,70.2,"[0, 0, 49, 7, 100, 9, 1, 264, 7, 219, 218, 294, 218, 219, 7, 264]","[[0, 0, 49, 7, 100, 9, 1, 264, 7, 219, 218, 294, 218, 219, 7, 264], [0, 0, 9, 49, 7, 100, 1, 264, 7, 219, 218, 294, 218, 219, 7, 264], [0, 0, 100, 9, 49, 7, 1, 264, 7, 219, 218, 294, 218, 219, 7, 264], [0, 0, 7, 100, 9, 49, 1, 264, 7, 219, 218, 294, 218, 219, 7, 264]]"
PBDB-T,NFBDT,-5.297714285714285,-3.4170000000000003,-5.400000000000001,-3.83,1.25,CF,_,25.0,PEDOT:PSS,PDINO,10.42,10.41,0.868,67.2,"[0, 0, 49, 7, 100, 9, 1, 222, 7, 219, 218, 221, 218, 219, 7, 222]","[[0, 0, 49, 7, 100, 9, 1, 222, 7, 219, 218, 221, 218, 219, 7, 222], [0, 0, 9, 49, 7, 100, 1, 222, 7, 219, 218, 221, 218, 219, 7, 222], [0, 0, 100, 9, 49, 7, 1, 222, 7, 219, 218, 221, 218, 219, 7, 222], [0, 0, 7, 100, 9, 49, 1, 222, 7, 219, 218, 221, 218, 219, 7, 222]]"
J71,ZITI-4F,-5.353333333333333,-3.4318181818181825,-5.66,-3.81,1.0,CF,_,120.0,PEDOT:PSS,PNDIT-F3N,13.18,13.17,0.85,72.76,"[0, 0, 0, 0, 6, 7, 8, 9, 1, 217, 295, 221, 296, 221, 295, 217]","[[0, 0, 0, 0, 6, 7, 8, 9, 1, 217, 295, 221, 296, 221, 295, 217], [0, 0, 0, 0, 9, 6, 7, 8, 1, 217, 295, 221, 296, 221, 295, 217], [0, 0, 0, 0, 8, 9, 6, 7, 1, 217, 295, 221, 296, 221, 295, 217], [0, 0, 0, 0, 7, 8, 9, 6, 1, 217, 295, 221, 296, 221, 295, 217]]"
J71,ZITI,-5.353333333333333,-3.4318181818181825,-5.550000000000001,-3.78,1.0,CF,_,120.0,PEDOT:PSS,PNDIT-F3N,13.04,12.91,0.93,68.61,"[0, 0, 6, 7, 8, 9, 1, 264, 7, 348, 221, 349, 221, 348, 7, 264]","[[0, 0, 6, 7, 8, 9, 1, 264, 7, 348, 221, 349, 221, 348, 7, 264], [0, 0, 9, 6, 7, 8, 1, 264, 7, 348, 221, 349, 221, 348, 7, 264], [0, 0, 8, 9, 6, 7, 1, 264, 7, 348, 221, 349, 221, 348, 7, 264], [0, 0, 7, 8, 9, 6, 1, 264, 7, 348, 221, 349, 221, 348, 7, 264]]"
PBDB-T,DTCCIC-C17,-5.297714285714285,-3.4170000000000003,-5.46,-3.65,0.667,CB,DIO,25.0,MoOx,ZnO,9.02,9.02,0.96,67.0,"[0, 0, 49, 7, 100, 9, 1, 222, 7, 297, 221, 298, 221, 297, 7, 222]","[[0, 0, 49, 7, 100, 9, 1, 222, 7, 297, 221, 298, 221, 297, 7, 222], [0, 0, 9, 49, 7, 100, 1, 222, 7, 297, 221, 298, 221, 297, 7, 222], [0, 0, 100, 9, 49, 7, 1, 222, 7, 297, 221, 298, 221, 297, 7, 222], [0, 0, 7, 100, 9, 49, 1, 222, 7, 297, 221, 298, 221, 297, 7, 222]]"
P3HT,O-IDTBR,-5.057777777777777,-2.989444444444445,-5.535,-3.74,1.0,CB,_,130.0,MoOx,ZnO,6.3,6.0,0.72,60.0,"[0, 0, 41, 40, 40, 194, 1, 240, 56, 7, 225, 221, 225, 7, 56, 240]","[[0, 0, 41, 40, 40, 194, 1, 240, 56, 7, 225, 221, 225, 7, 56, 240], [0, 0, 194, 41, 40, 40, 1, 240, 56, 7, 225, 221, 225, 7, 56, 240], [0, 0, 40, 194, 41, 40, 1, 240, 56, 7, 225, 221, 225, 7, 56, 240], [0, 0, 40, 40, 194, 41, 1, 240, 56, 7, 225, 221, 225, 7, 56, 240]]"