Donor,Acceptor,HOMO_D_eV,LUMO_D_eV,HOMO_A_eV,LUMO_A_eV,D_A_ratio_m_m,solvent,solvent_additive,annealing_temperature,hole_contact_layer,electron_contact_layer,PCE_percent,calc_PCE_percent,Voc_V,FF_percent,DA_manual_tokenized,DA_manual_tokenized_aug
P3HT,BTA1,-5.057777777777777,-2.989444444444445,-5.510000000000001,-3.5499999999999994,1.667,CF,CN,100.0,PEDOT:PSS,Ca,5.24,5.24,1.02,70.0,"[0, 0, 41, 40, 40, 194, 1, 240, 18, 7, 219, 221, 219, 7, 18, 240]","[[0, 0, 41, 40, 40, 194, 1, 240, 18, 7, 219, 221, 219, 7, 18, 240], [0, 0, 194, 41, 40, 40, 1, 240, 18, 7, 219, 221, 219, 7, 18, 240], [0, 0, 40, 194, 41, 40, 1, 240, 18, 7, 219, 221, 219, 7, 18, 240], [0, 0, 40, 40, 194, 41, 1, 240, 18, 7, 219, 221, 219, 7, 18, 240]]"
P3HT,BTA2,-5.057777777777777,-2.989444444444445,-5.43,-3.3800000000000003,0.6,CF,DIO,100.0,PEDOT:PSS,Ca,4.5,4.5,1.22,60.0,"[0, 0, 41, 40, 40, 194, 1, 333, 18, 7, 219, 221, 219, 7, 18, 333]","[[0, 0, 41, 40, 40, 194, 1, 333, 18, 7, 219, 221, 219, 7, 18, 333], [0, 0, 194, 41, 40, 40, 1, 333, 18, 7, 219, 221, 219, 7, 18, 333], [0, 0, 40, 194, 41, 40, 1, 333, 18, 7, 219, 221, 219, 7, 18, 333], [0, 0, 40, 40, 194, 41, 1, 333, 18, 7, 219, 221, 219, 7, 18, 333]]"
J71,ITIC,-5.353333333333333,-3.4318181818181825,-5.574146341463415,-3.915,1.0,CF,_,150.0,PEDOT:PSS,PDINO,11.41,11.36,0.94,69.77,"[0, 0, 0, 0, 6, 7, 8, 9, 1, 222, 79, 219, 221, 219, 79, 222]","[[0, 0, 0, 0, 6, 7, 8, 9, 1, 222, 79, 219, 221, 219, 79, 222], [0, 0, 0, 0, 9, 6, 7, 8, 1, 222, 79, 219, 221, 219, 79, 222], [0, 0, 0, 0, 8, 9, 6, 7, 1, 222, 79, 219, 221, 219, 79, 222], [0, 0, 0, 0, 7, 8, 9, 6, 1, 222, 79, 219, 221, 219, 79, 222]]"
P3HT,IDT-2BR,-5.057777777777777,-2.989444444444445,-5.52,-3.69,1.667,o-DCB,CN,25.0,PEDOT:PSS,Ca,5.12,5.1,0.84,68.1,"[0, 0, 41, 40, 40, 194, 1, 240, 56, 7, 219, 221, 219, 7, 56, 240]","[[0, 0, 41, 40, 40, 194, 1, 240, 56, 7, 219, 221, 219, 7, 56, 240], [0, 0, 194, 41, 40, 40, 1, 240, 56, 7, 219, 221, 219, 7, 56, 240], [0, 0, 40, 194, 41, 40, 1, 240, 56, 7, 219, 221, 219, 7, 56, 240], [0, 0, 40, 40, 194, 41, 1, 240, 56, 7, 219, 221, 219, 7, 56, 240]]"
PBDTTT-EFT,IEICO-4F,-5.24,-3.66,-5.309971428571429,-3.851028571428572,0.667,CB,DIO,100.0,PEDOT:PSS,PFN-Br,10.0,10.01,0.739,59.4,"[0, 0, 0, 0, 49, 101, 1, 217, 229, 7, 219, 221, 219, 7, 229, 217]","[[0, 0, 0, 0, 49, 101, 1, 217, 229, 7, 219, 221, 219, 7, 229, 217], [0, 0, 0, 0, 101, 49, 1, 217, 229, 7, 219, 221, 219, 7, 229, 217]]"
J52,IEICO-4F,-5.218571428571429,-3.341428571428572,-5.309971428571429,-3.851028571428572,0.667,CB,DIO,100.0,PEDOT:PSS,PFN-Br,9.4,9.4,0.734,58.5,"[0, 0, 10, 7, 8, 9, 1, 217, 229, 7, 219, 221, 219, 7, 229, 217]","[[0, 0, 10, 7, 8, 9, 1, 217, 229, 7, 219, 221, 219, 7, 229, 217], [0, 0, 9, 10, 7, 8, 1, 217, 229, 7, 219, 221, 219, 7, 229, 217], [0, 0, 8, 9, 10, 7, 1, 217, 229, 7, 219, 221, 219, 7, 229, 217], [0, 0, 7, 8, 9, 10, 1, 217, 229, 7, 219, 221, 219, 7, 229, 217]]"
PffT2-FTAZ-2DT,IEIC,-5.28,-3.37,-5.455,-3.8625,1.0,CB,_,90.0,V2O5,ZnO,7.2,7.18,0.998,59.0,"[0, 113, 123, 124, 125, 126, 1, 222, 64, 7, 219, 221, 219, 7, 64, 222]","[[0, 113, 123, 124, 125, 126, 1, 222, 64, 7, 219, 221, 219, 7, 64, 222], [0, 126, 113, 123, 124, 125, 1, 222, 64, 7, 219, 221, 219, 7, 64, 222], [0, 125, 126, 113, 123, 124, 1, 222, 64, 7, 219, 221, 219, 7, 64, 222], [0, 124, 125, 126, 113, 123, 1, 222, 64, 7, 219, 221, 219, 7, 64, 222], [0, 123, 124, 125, 126, 113, 1, 222, 64, 7, 219, 221, 219, 7, 64, 222]]"
PTB7-Th,IEIC1,-5.204782608695651,-3.5391891891891896,-5.44,-3.87,1.667,DCB,CN,25.0,PEDOT:PSS,Ca,3.9,3.66,0.84,44.0,"[0, 0, 0, 0, 49, 101, 1, 222, 7, 7, 219, 221, 219, 7, 7, 222]","[[0, 0, 0, 0, 49, 101, 1, 222, 7, 7, 219, 221, 219, 7, 7, 222], [0, 0, 0, 0, 101, 49, 1, 222, 7, 7, 219, 221, 219, 7, 7, 222]]"
PTB7-Th,IEIC2,-5.204782608695651,-3.5391891891891896,-5.45,-3.87,0.833,DCB,CN,25.0,PEDOT:PSS,Ca,5.4,5.05,0.91,50.0,"[0, 0, 0, 0, 49, 101, 1, 222, 339, 7, 219, 221, 219, 7, 339, 222]","[[0, 0, 0, 0, 49, 101, 1, 222, 339, 7, 219, 221, 219, 7, 339, 222], [0, 0, 0, 0, 101, 49, 1, 222, 339, 7, 219, 221, 219, 7, 339, 222]]"
PTB7-Th,IEIC3,-5.204782608695651,-3.5391891891891896,-5.46,-3.86,0.667,DCB,CN,25.0,PEDOT:PSS,Ca,7.4,6.9,0.93,58.0,"[0, 0, 0, 0, 49, 101, 1, 222, 40, 7, 219, 221, 219, 7, 40, 222]","[[0, 0, 0, 0, 49, 101, 1, 222, 40, 7, 219, 221, 219, 7, 40, 222], [0, 0, 0, 0, 101, 49, 1, 222, 40, 7, 219, 221, 219, 7, 40, 222]]"
PTB7-Th,IEIC,-5.204782608695651,-3.5391891891891896,-5.455,-3.8625,0.667,DCB,_,25.0,PEDOT:PSS,Ca,6.0,5.73,0.95,49.0,"[0, 0, 0, 0, 49, 101, 1, 222, 64, 7, 219, 221, 219, 7, 64, 222]","[[0, 0, 0, 0, 49, 101, 1, 222, 64, 7, 219, 221, 219, 7, 64, 222], [0, 0, 0, 0, 101, 49, 1, 222, 64, 7, 219, 221, 219, 7, 64, 222]]"
PBDB-T,IT-M,-5.297714285714285,-3.4170000000000003,-5.513571428571429,-3.808,1.0,CB,DIO,160.0,MoOx,ZnO,12.05,12.05,0.94,73.5,"[0, 0, 0, 0, 49, 7, 100, 9, 1, 230, 79, 219, 221, 219, 79, 230]","[[0, 0, 0, 0, 49, 7, 100, 9, 1, 230, 79, 219, 221, 219, 79, 230], [0, 0, 0, 0, 9, 49, 7, 100, 1, 230, 79, 219, 221, 219, 79, 230], [0, 0, 0, 0, 100, 9, 49, 7, 1, 230, 79, 219, 221, 219, 79, 230], [0, 0, 0, 0, 7, 100, 9, 49, 1, 230, 79, 219, 221, 219, 79, 230]]"
PBDB-T,IT-DM,-5.297714285714285,-3.4170000000000003,-5.515,-3.855,1.0,CB,DIO,160.0,MoOx,ZnO,11.29,11.29,0.97,70.6,"[0, 0, 0, 0, 49, 7, 100, 9, 1, 340, 79, 219, 221, 219, 79, 340]","[[0, 0, 0, 0, 49, 7, 100, 9, 1, 340, 79, 219, 221, 219, 79, 340], [0, 0, 0, 0, 9, 49, 7, 100, 1, 340, 79, 219, 221, 219, 79, 340], [0, 0, 0, 0, 100, 9, 49, 7, 1, 340, 79, 219, 221, 219, 79, 340], [0, 0, 0, 0, 7, 100, 9, 49, 1, 340, 79, 219, 221, 219, 79, 340]]"
PBDB-ST,ITIC-SC6,-5.37,-3.59,-5.68,-3.91,1.0,DCB,CBA,110.0,MoOx,ZnO,7.27,7.24,0.9,58.0,"[0, 0, 0, 0, 14, 7, 100, 9, 1, 222, 79, 341, 221, 341, 79, 222]","[[0, 0, 0, 0, 14, 7, 100, 9, 1, 222, 79, 341, 221, 341, 79, 222], [0, 0, 0, 0, 9, 14, 7, 100, 1, 222, 79, 341, 221, 341, 79, 222], [0, 0, 0, 0, 100, 9, 14, 7, 1, 222, 79, 341, 221, 341, 79, 222], [0, 0, 0, 0, 7, 100, 9, 14, 1, 222, 79, 341, 221, 341, 79, 222]]"
PBDB-ST,ITIC-SC8,-5.37,-3.59,-5.7,-3.9,1.0,DCB,CBA,110.0,MoOx,ZnO,7.79,7.79,0.9,60.0,"[0, 0, 0, 0, 14, 7, 100, 9, 1, 222, 79, 342, 221, 342, 79, 222]","[[0, 0, 0, 0, 14, 7, 100, 9, 1, 222, 79, 342, 221, 342, 79, 222], [0, 0, 0, 0, 9, 14, 7, 100, 1, 222, 79, 342, 221, 342, 79, 222], [0, 0, 0, 0, 100, 9, 14, 7, 1, 222, 79, 342, 221, 342, 79, 222], [0, 0, 0, 0, 7, 100, 9, 14, 1, 222, 79, 342, 221, 342, 79, 222]]"
PBDB-ST,ITIC-SC2C6,-5.37,-3.59,-5.74,-3.86,1.0,DCB,CBA,110.0,MoOx,ZnO,9.16,9.02,0.92,64.0,"[0, 0, 0, 0, 14, 7, 100, 9, 1, 222, 79, 343, 221, 343, 79, 222]","[[0, 0, 0, 0, 14, 7, 100, 9, 1, 222, 79, 343, 221, 343, 79, 222], [0, 0, 0, 0, 9, 14, 7, 100, 1, 222, 79, 343, 221, 343, 79, 222], [0, 0, 0, 0, 100, 9, 14, 7, 1, 222, 79, 343, 221, 343, 79, 222], [0, 0, 0, 0, 7, 100, 9, 14, 1, 222, 79, 343, 221, 343, 79, 222]]"
PTB7-Th,ITIC-Th,-5.204782608695651,-3.5391891891891896,-5.673333333333334,-3.908888888888889,0.769,o-DCB,CN,25.0,MoOx,ZnO,8.7,8.67,0.8,68.0,"[0, 0, 0, 0, 0, 0, 49, 101, 1, 222, 79, 313, 221, 313, 79, 222]","[[0, 0, 0, 0, 0, 0, 49, 101, 1, 222, 79, 313, 221, 313, 79, 222], [0, 0, 0, 0, 0, 0, 101, 49, 1, 222, 79, 313, 221, 313, 79, 222]]"
PDBT-T1,ITIC-Th,-5.36,-3.43,-5.673333333333334,-3.908888888888889,1.0,CF,CN,25.0,MoOx,ZnO,9.6,9.59,0.88,67.1,"[0, 0, 0, 0, 149, 7, 100, 9, 1, 222, 79, 313, 221, 313, 79, 222]","[[0, 0, 0, 0, 149, 7, 100, 9, 1, 222, 79, 313, 221, 313, 79, 222], [0, 0, 0, 0, 9, 149, 7, 100, 1, 222, 79, 313, 221, 313, 79, 222], [0, 0, 0, 0, 100, 9, 149, 7, 1, 222, 79, 313, 221, 313, 79, 222], [0, 0, 0, 0, 7, 100, 9, 149, 1, 222, 79, 313, 221, 313, 79, 222]]"
P2F-EH,ITIC,-5.36,-3.04,-5.574146341463415,-3.915,1.0,CF,_,100.0,PEDOT:PSS,PFNDI-Br,6.13,6.15,0.983,50.48,"[0, 0, 0, 0, 96, 7, 127, 9, 1, 222, 79, 219, 221, 219, 79, 222]","[[0, 0, 0, 0, 96, 7, 127, 9, 1, 222, 79, 219, 221, 219, 79, 222], [0, 0, 0, 0, 9, 96, 7, 127, 1, 222, 79, 219, 221, 219, 79, 222], [0, 0, 0, 0, 127, 9, 96, 7, 1, 222, 79, 219, 221, 219, 79, 222], [0, 0, 0, 0, 7, 127, 9, 96, 1, 222, 79, 219, 221, 219, 79, 222]]"
P2F-Ehp,ITIC,-5.38,-3.06,-5.574146341463415,-3.915,1.0,CF,_,100.0,PEDOT:PSS,PFNDI-Br,7.28,7.25,1.017,54.79,"[0, 0, 0, 0, 96, 7, 128, 9, 1, 222, 79, 219, 221, 219, 79, 222]","[[0, 0, 0, 0, 96, 7, 128, 9, 1, 222, 79, 219, 221, 219, 79, 222], [0, 0, 0, 0, 9, 96, 7, 128, 1, 222, 79, 219, 221, 219, 79, 222], [0, 0, 0, 0, 128, 9, 96, 7, 1, 222, 79, 219, 221, 219, 79, 222], [0, 0, 0, 0, 7, 128, 9, 96, 1, 222, 79, 219, 221, 219, 79, 222]]"
P2F-EO,ITIC,-5.41,-3.08,-5.574146341463415,-3.915,1.0,CF,_,100.0,PEDOT:PSS,PFNDI-Br,6.73,6.73,1.013,52.53,"[0, 0, 0, 0, 96, 7, 129, 9, 1, 222, 79, 219, 221, 219, 79, 222]","[[0, 0, 0, 0, 96, 7, 129, 9, 1, 222, 79, 219, 221, 219, 79, 222], [0, 0, 0, 0, 9, 96, 7, 129, 1, 222, 79, 219, 221, 219, 79, 222], [0, 0, 0, 0, 129, 9, 96, 7, 1, 222, 79, 219, 221, 219, 79, 222], [0, 0, 0, 0, 7, 129, 9, 96, 1, 222, 79, 219, 221, 219, 79, 222]]"
P2F-Ehp,IT-F,-5.38,-3.06,-5.66,-3.95,1.0,CF,_,100.0,PEDOT:PSS,PFNDI-Br,10.06,10.04,0.959,61.94,"[0, 0, 0, 0, 96, 7, 128, 9, 1, 264, 79, 219, 221, 219, 79, 264]","[[0, 0, 0, 0, 96, 7, 128, 9, 1, 264, 79, 219, 221, 219, 79, 264], [0, 0, 0, 0, 9, 96, 7, 128, 1, 264, 79, 219, 221, 219, 79, 264], [0, 0, 0, 0, 128, 9, 96, 7, 1, 264, 79, 219, 221, 219, 79, 264], [0, 0, 0, 0, 7, 128, 9, 96, 1, 264, 79, 219, 221, 219, 79, 264]]"
P2F-Ehp,IT-2F,-5.38,-3.06,-5.665,-4.095,1.0,CF,_,100.0,PEDOT:PSS,PFNDI-Br,12.96,12.97,0.891,74.09,"[0, 0, 0, 0, 96, 7, 128, 9, 1, 217, 79, 219, 221, 219, 79, 217]","[[0, 0, 0, 0, 96, 7, 128, 9, 1, 217, 79, 219, 221, 219, 79, 217], [0, 0, 0, 0, 9, 96, 7, 128, 1, 217, 79, 219, 221, 219, 79, 217], [0, 0, 0, 0, 128, 9, 96, 7, 1, 217, 79, 219, 221, 219, 79, 217], [0, 0, 0, 0, 7, 128, 9, 96, 1, 217, 79, 219, 221, 219, 79, 217]]"
PB3T,IT-M,-5.39,-3.37,-5.513571428571429,-3.808,1.5,Anisole,_,25.0,PEDOT:PSS,PFN-Br,11.9,11.91,1.0,63.0,"[0, 0, 0, 0, 34, 130, 7, 131, 1, 230, 79, 219, 221, 219, 79, 230]","[[0, 0, 0, 0, 34, 130, 7, 131, 1, 230, 79, 219, 221, 219, 79, 230], [0, 0, 0, 0, 131, 34, 130, 7, 1, 230, 79, 219, 221, 219, 79, 230], [0, 0, 0, 0, 7, 131, 34, 130, 1, 230, 79, 219, 221, 219, 79, 230], [0, 0, 0, 0, 130, 7, 131, 34, 1, 230, 79, 219, 221, 219, 79, 230]]"
PBDB-T,IT-M,-5.297714285714285,-3.4170000000000003,-5.513571428571429,-3.808,1.0,CB,DIO,100.0,MoOx,EDTA-ZnO,12.1,12.1,0.953,73.2,"[0, 0, 0, 0, 49, 7, 100, 9, 1, 230, 79, 219, 221, 219, 79, 230]","[[0, 0, 0, 0, 49, 7, 100, 9, 1, 230, 79, 219, 221, 219, 79, 230], [0, 0, 0, 0, 9, 49, 7, 100, 1, 230, 79, 219, 221, 219, 79, 230], [0, 0, 0, 0, 100, 9, 49, 7, 1, 230, 79, 219, 221, 219, 79, 230], [0, 0, 0, 0, 7, 100, 9, 49, 1, 230, 79, 219, 221, 219, 79, 230]]"
PBDB-T,ITIC,-5.297714285714285,-3.4170000000000003,-5.574146341463415,-3.915,1.0,CB,DIO,160.0,MoOx,ZnO,10.02,10.02,0.86,64.29,"[0, 0, 0, 0, 49, 7, 100, 9, 1, 222, 79, 219, 221, 219, 79, 222]","[[0, 0, 0, 0, 49, 7, 100, 9, 1, 222, 79, 219, 221, 219, 79, 222], [0, 0, 0, 0, 9, 49, 7, 100, 1, 222, 79, 219, 221, 219, 79, 222], [0, 0, 0, 0, 100, 9, 49, 7, 1, 222, 79, 219, 221, 219, 79, 222], [0, 0, 0, 0, 7, 100, 9, 49, 1, 222, 79, 219, 221, 219, 79, 222]]"
PBDB-T,ITIC,-5.297714285714285,-3.4170000000000003,-5.574146341463415,-3.915,1.0,CB,DIO,110.0,PEDOT:PSS,PFN-Br,10.54,10.49,0.896,70.73,"[0, 0, 0, 0, 49, 7, 100, 9, 1, 222, 79, 219, 221, 219, 79, 222]","[[0, 0, 0, 0, 49, 7, 100, 9, 1, 222, 79, 219, 221, 219, 79, 222], [0, 0, 0, 0, 9, 49, 7, 100, 1, 222, 79, 219, 221, 219, 79, 222], [0, 0, 0, 0, 100, 9, 49, 7, 1, 222, 79, 219, 221, 219, 79, 222], [0, 0, 0, 0, 7, 100, 9, 49, 1, 222, 79, 219, 221, 219, 79, 222]]"
PBDB-T,IT-M,-5.297714285714285,-3.4170000000000003,-5.513571428571429,-3.808,1.0,CB,DIO,110.0,PEDOT:PSS,PFN-Br,11.52,11.52,0.95,74.06,"[0, 0, 0, 0, 49, 7, 100, 9, 1, 230, 79, 219, 221, 219, 79, 230]","[[0, 0, 0, 0, 49, 7, 100, 9, 1, 230, 79, 219, 221, 219, 79, 230], [0, 0, 0, 0, 9, 49, 7, 100, 1, 230, 79, 219, 221, 219, 79, 230], [0, 0, 0, 0, 100, 9, 49, 7, 1, 230, 79, 219, 221, 219, 79, 230], [0, 0, 0, 0, 7, 100, 9, 49, 1, 230, 79, 219, 221, 219, 79, 230]]"
PBDB-T,DICTiF,-5.297714285714285,-3.4170000000000003,-5.55,-3.62,0.714,CF,DPE,80.0,PEDOT:PSS,PDIN,6.97,7.13,0.98,65.0,"[0, 0, 0, 0, 49, 7, 100, 9, 1, 222, 7, 221, 260, 221, 7, 222]","[[0, 0, 0, 0, 49, 7, 100, 9, 1, 222, 7, 221, 260, 221, 7, 222], [0, 0, 0, 0, 9, 49, 7, 100, 1, 222, 7, 221, 260, 221, 7, 222], [0, 0, 0, 0, 100, 9, 49, 7, 1, 222, 7, 221, 260, 221, 7, 222], [0, 0, 0, 0, 7, 100, 9, 49, 1, 222, 7, 221, 260, 221, 7, 222]]"
PffBT4T-2OD,BAF-4CN,-5.32,-3.695,-5.7,-3.6,0.741,o-DCB:CB (1:1),DIO,25.0,MoOx,ZnO,8.4,8.44,0.769,70.7,"[0, 0, 0, 69, 22, 95, 7, 9, 1, 338, 56, 221, 344, 221, 56, 338]","[[0, 0, 0, 69, 22, 95, 7, 9, 1, 338, 56, 221, 344, 221, 56, 338], [0, 0, 0, 9, 69, 22, 95, 7, 1, 338, 56, 221, 344, 221, 56, 338], [0, 0, 0, 7, 9, 69, 22, 95, 1, 338, 56, 221, 344, 221, 56, 338], [0, 0, 0, 95, 7, 9, 69, 22, 1, 338, 56, 221, 344, 221, 56, 338], [0, 0, 0, 22, 95, 7, 9, 69, 1, 338, 56, 221, 344, 221, 56, 338]]"
PBDB-T,DCF-2HT,-5.297714285714285,-3.4170000000000003,-5.67,-3.72,0.714,CF,PN,25.0,PEDOT:PSS,PDIN,5.71,5.71,1.02,49.5,"[0, 0, 0, 0, 49, 7, 100, 9, 1, 222, 40, 221, 225, 221, 40, 222]","[[0, 0, 0, 0, 49, 7, 100, 9, 1, 222, 40, 221, 225, 221, 40, 222], [0, 0, 0, 0, 9, 49, 7, 100, 1, 222, 40, 221, 225, 221, 40, 222], [0, 0, 0, 0, 100, 9, 49, 7, 1, 222, 40, 221, 225, 221, 40, 222], [0, 0, 0, 0, 7, 100, 9, 49, 1, 222, 40, 221, 225, 221, 40, 222]]"
PTB7-Th,DCF-2HT,-5.204782608695651,-3.5391891891891896,-5.67,-3.72,0.714,CF,PN,25.0,PEDOT:PSS,PDIN,4.83,4.78,0.96,40.04,"[0, 0, 0, 0, 0, 0, 49, 101, 1, 222, 40, 221, 225, 221, 40, 222]","[[0, 0, 0, 0, 0, 0, 49, 101, 1, 222, 40, 221, 225, 221, 40, 222], [0, 0, 0, 0, 0, 0, 101, 49, 1, 222, 40, 221, 225, 221, 40, 222]]"
FTAZ,ITIC1,-5.43,-3.3200000000000003,-5.48,-3.85,0.769,CF,_,25.0,MoOx,ZnO,8.54,8.54,0.921,56.4,"[0, 0, 60, 7, 20, 9, 1, 222, 7, 219, 218, 221, 218, 219, 7, 222]","[[0, 0, 60, 7, 20, 9, 1, 222, 7, 219, 218, 221, 218, 219, 7, 222], [0, 0, 9, 60, 7, 20, 1, 222, 7, 219, 218, 221, 218, 219, 7, 222], [0, 0, 20, 9, 60, 7, 1, 222, 7, 219, 218, 221, 218, 219, 7, 222], [0, 0, 7, 20, 9, 60, 1, 222, 7, 219, 218, 221, 218, 219, 7, 222]]"
FTAZ,ITIC2,-5.43,-3.3200000000000003,-5.43,-3.8,0.769,CF,_,110.0,MoOx,ZnO,11.0,11.0,0.925,63.0,"[0, 0, 60, 7, 20, 9, 1, 222, 7, 219, 218, 345, 218, 219, 7, 222]","[[0, 0, 60, 7, 20, 9, 1, 222, 7, 219, 218, 345, 218, 219, 7, 222], [0, 0, 9, 60, 7, 20, 1, 222, 7, 219, 218, 345, 218, 219, 7, 222], [0, 0, 20, 9, 60, 7, 1, 222, 7, 219, 218, 345, 218, 219, 7, 222], [0, 0, 7, 20, 9, 60, 1, 222, 7, 219, 218, 345, 218, 219, 7, 222]]"
PTB7-Th,BT-IC,-5.204782608695651,-3.5391891891891896,-5.3775,-3.8575,0.667,CB:CF (9:1),_,150.0,MoOx,ZnO,8.3,8.45,0.81,59.6,"[0, 0, 0, 0, 49, 101, 1, 222, 7, 219, 218, 235, 218, 219, 7, 222]","[[0, 0, 0, 0, 49, 101, 1, 222, 7, 219, 218, 235, 218, 219, 7, 222], [0, 0, 0, 0, 101, 49, 1, 222, 7, 219, 218, 235, 218, 219, 7, 222]]"
PTB7-Th,BT-CIC,-5.204782608695651,-3.5391891891891896,-5.32,-3.85,0.667,CB:CF (9:1),_,150.0,MoOx,ZnO,11.2,11.18,0.7,71.0,"[0, 0, 0, 0, 49, 101, 1, 231, 7, 219, 218, 235, 218, 219, 7, 346]","[[0, 0, 0, 0, 49, 101, 1, 231, 7, 219, 218, 235, 218, 219, 7, 346], [0, 0, 0, 0, 101, 49, 1, 231, 7, 219, 218, 235, 218, 219, 7, 346]]"
FTAZ,IDIC1,-5.43,-3.3200000000000003,-5.51,-3.81,0.667,CF,_,25.0,MoOx,ZnO,7.13,7.13,0.896,58.5,"[0, 0, 0, 0, 60, 7, 20, 9, 1, 222, 7, 219, 221, 219, 7, 222]","[[0, 0, 0, 0, 60, 7, 20, 9, 1, 222, 7, 219, 221, 219, 7, 222], [0, 0, 0, 0, 9, 60, 7, 20, 1, 222, 7, 219, 221, 219, 7, 222], [0, 0, 0, 0, 20, 9, 60, 7, 1, 222, 7, 219, 221, 219, 7, 222], [0, 0, 0, 0, 7, 20, 9, 60, 1, 222, 7, 219, 221, 219, 7, 222]]"
FTAZ,IHIC1,-5.43,-3.3200000000000003,-5.47,-3.75,0.667,CF,_,25.0,MoOx,ZnO,9.21,9.22,0.95,67.9,"[0, 0, 0, 0, 60, 7, 20, 9, 1, 222, 7, 219, 267, 219, 7, 222]","[[0, 0, 0, 0, 60, 7, 20, 9, 1, 222, 7, 219, 267, 219, 7, 222], [0, 0, 0, 0, 9, 60, 7, 20, 1, 222, 7, 219, 267, 219, 7, 222], [0, 0, 0, 0, 20, 9, 60, 7, 1, 222, 7, 219, 267, 219, 7, 222], [0, 0, 0, 0, 7, 20, 9, 60, 1, 222, 7, 219, 267, 219, 7, 222]]"
PBDB-T,NTIC,-5.297714285714285,-3.4170000000000003,-5.58,-3.76,1.25,CF,_,25.0,PEDOT:PSS,PDINO,8.63,8.63,0.935,68.1,"[0, 0, 0, 0, 49, 7, 100, 9, 1, 222, 7, 219, 267, 219, 7, 222]","[[0, 0, 0, 0, 49, 7, 100, 9, 1, 222, 7, 219, 267, 219, 7, 222], [0, 0, 0, 0, 9, 49, 7, 100, 1, 222, 7, 219, 267, 219, 7, 222], [0, 0, 0, 0, 100, 9, 49, 7, 1, 222, 7, 219, 267, 219, 7, 222], [0, 0, 0, 0, 7, 100, 9, 49, 1, 222, 7, 219, 267, 219, 7, 222]]"
PBDB-T,NTIC-Me,-5.297714285714285,-3.4170000000000003,-5.53,-3.73,1.25,CF,_,25.0,PEDOT:PSS,PDINO,8.3,8.88,0.963,66.2,"[0, 0, 0, 0, 49, 7, 100, 9, 1, 230, 7, 219, 267, 219, 7, 230]","[[0, 0, 0, 0, 49, 7, 100, 9, 1, 230, 7, 219, 267, 219, 7, 230], [0, 0, 0, 0, 9, 49, 7, 100, 1, 230, 7, 219, 267, 219, 7, 230], [0, 0, 0, 0, 100, 9, 49, 7, 1, 230, 7, 219, 267, 219, 7, 230], [0, 0, 0, 0, 7, 100, 9, 49, 1, 230, 7, 219, 267, 219, 7, 230]]"
PBDB-T,NTIC-OMe,-5.297714285714285,-3.4170000000000003,-5.53,-3.7,1.25,CF,_,25.0,PEDOT:PSS,PDINO,8.61,8.61,0.965,66.0,"[0, 0, 0, 0, 49, 7, 100, 9, 1, 281, 7, 219, 267, 219, 7, 281]","[[0, 0, 0, 0, 49, 7, 100, 9, 1, 281, 7, 219, 267, 219, 7, 281], [0, 0, 0, 0, 9, 49, 7, 100, 1, 281, 7, 219, 267, 219, 7, 281], [0, 0, 0, 0, 100, 9, 49, 7, 1, 281, 7, 219, 267, 219, 7, 281], [0, 0, 0, 0, 7, 100, 9, 49, 1, 281, 7, 219, 267, 219, 7, 281]]"
PBDB-T,NTIC-F,-5.297714285714285,-3.4170000000000003,-5.52,-3.77,1.25,CF,_,25.0,PEDOT:PSS,PDINO,8.1,8.1,0.812,66.3,"[0, 0, 0, 0, 49, 7, 100, 9, 1, 264, 7, 219, 267, 219, 7, 264]","[[0, 0, 0, 0, 49, 7, 100, 9, 1, 264, 7, 219, 267, 219, 7, 264], [0, 0, 0, 0, 9, 49, 7, 100, 1, 264, 7, 219, 267, 219, 7, 264], [0, 0, 0, 0, 100, 9, 49, 7, 1, 264, 7, 219, 267, 219, 7, 264], [0, 0, 0, 0, 7, 100, 9, 49, 1, 264, 7, 219, 267, 219, 7, 264]]"
PffBT4T-2OD,FBR,-5.32,-3.695,-5.786666666666666,-3.673333333333333,0.714,o-DCB:CB (1:1),_,25.0,MoOx,ZnO,7.04,7.0,1.11,50.0,"[0, 0, 0, 69, 22, 95, 7, 9, 1, 240, 56, 221, 225, 221, 56, 240]","[[0, 0, 0, 69, 22, 95, 7, 9, 1, 240, 56, 221, 225, 221, 56, 240], [0, 0, 0, 9, 69, 22, 95, 7, 1, 240, 56, 221, 225, 221, 56, 240], [0, 0, 0, 7, 9, 69, 22, 95, 1, 240, 56, 221, 225, 221, 56, 240], [0, 0, 0, 95, 7, 9, 69, 22, 1, 240, 56, 221, 225, 221, 56, 240], [0, 0, 0, 22, 95, 7, 9, 69, 1, 240, 56, 221, 225, 221, 56, 240]]"
PBT1-C,IT-4F,-5.449999999999999,-3.41,-5.66875,-4.060416666666667,1.0,CB,DIO,25.0,MoO3,ZnO,10.9,10.97,0.79,70.5,"[0, 0, 0, 0, 164, 7, 100, 9, 1, 217, 79, 219, 221, 219, 79, 217]","[[0, 0, 0, 0, 164, 7, 100, 9, 1, 217, 79, 219, 221, 219, 79, 217], [0, 0, 0, 0, 9, 164, 7, 100, 1, 217, 79, 219, 221, 219, 79, 217], [0, 0, 0, 0, 100, 9, 164, 7, 1, 217, 79, 219, 221, 219, 79, 217], [0, 0, 0, 0, 7, 100, 9, 164, 1, 217, 79, 219, 221, 219, 79, 217]]"
PBT1-C-2Cl,IT-4F,-5.59,-3.53,-5.66875,-4.060416666666667,1.0,CB,DIO,25.0,MoO3,ZnO,12.7,12.75,0.85,76.0,"[0, 0, 0, 0, 197, 198, 100, 199, 1, 217, 79, 219, 221, 219, 79, 217]","[[0, 0, 0, 0, 197, 198, 100, 199, 1, 217, 79, 219, 221, 219, 79, 217], [0, 0, 0, 0, 199, 197, 198, 100, 1, 217, 79, 219, 221, 219, 79, 217], [0, 0, 0, 0, 100, 199, 197, 198, 1, 217, 79, 219, 221, 219, 79, 217], [0, 0, 0, 0, 198, 100, 199, 197, 1, 217, 79, 219, 221, 219, 79, 217]]"
J71,IT-IC,-5.353333333333333,-3.4318181818181825,-5.58,-3.88,0.833,CF,_,25.0,PEDOT:PSS,PDINO,9.3,9.04,0.96,63.6,"[0, 0, 0, 0, 6, 7, 8, 9, 1, 222, 79, 219, 221, 219, 79, 222]","[[0, 0, 0, 0, 6, 7, 8, 9, 1, 222, 79, 219, 221, 219, 79, 222], [0, 0, 0, 0, 9, 6, 7, 8, 1, 222, 79, 219, 221, 219, 79, 222], [0, 0, 0, 0, 8, 9, 6, 7, 1, 222, 79, 219, 221, 219, 79, 222], [0, 0, 0, 0, 7, 8, 9, 6, 1, 222, 79, 219, 221, 219, 79, 222]]"