Donor,Acceptor,HOMO_D_eV,LUMO_D_eV,HOMO_A_eV,LUMO_A_eV,D_A_ratio_m_m,solvent,solvent_additive,annealing_temperature,hole_contact_layer,electron_contact_layer,PCE_percent,calc_PCE_percent,Voc_V,FF_percent,DA_manual_tokenized,DA_manual_tokenized_aug
PBDTTT-C-T,IDT-2BM,-5.128,-3.268,-5.586666666666666,-4.083333333333333,1.5,o-DCB,CN,25.0,PEDOT:PSS,Ca,4.26,4.26,0.766,55.1,"[0, 0, 0, 0, 49, 112, 1, 305, 56, 7, 219, 221, 219, 7, 56, 305]","[[0, 0, 0, 0, 49, 112, 1, 305, 56, 7, 219, 221, 219, 7, 56, 305], [0, 0, 0, 0, 112, 49, 1, 305, 56, 7, 219, 221, 219, 7, 56, 305]]"
PBDTTT-C-T,IDTT-2BM,-5.128,-3.268,-5.5,-3.8,1.5,o-DCB,DIO,25.0,PEDOT:PSS,Ca,4.81,4.8,0.851,57.2,"[0, 0, 0, 0, 49, 112, 1, 305, 56, 79, 219, 221, 219, 79, 56, 305]","[[0, 0, 0, 0, 49, 112, 1, 305, 56, 79, 219, 221, 219, 79, 56, 305], [0, 0, 0, 0, 112, 49, 1, 305, 56, 79, 219, 221, 219, 79, 56, 305]]"
PffQx-T,ITIC,-5.36,-3.56,-5.574146341463415,-3.915,0.667,CF,_,170.0,PEDOT:PSS,PDINO,8.47,8.47,0.87,59.6,"[0, 0, 0, 0, 49, 7, 190, 9, 1, 222, 79, 219, 221, 219, 79, 222]","[[0, 0, 0, 0, 49, 7, 190, 9, 1, 222, 79, 219, 221, 219, 79, 222], [0, 0, 0, 0, 9, 49, 7, 190, 1, 222, 79, 219, 221, 219, 79, 222], [0, 0, 0, 0, 190, 9, 49, 7, 1, 222, 79, 219, 221, 219, 79, 222], [0, 0, 0, 0, 7, 190, 9, 49, 1, 222, 79, 219, 221, 219, 79, 222]]"
PffQx-PS,ITIC,-5.4,-3.55,-5.574146341463415,-3.915,1.0,CF,DIO,90.0,PEDOT:PSS,PDINO,9.12,9.13,0.97,62.9,"[0, 0, 0, 0, 134, 7, 190, 9, 1, 222, 79, 219, 221, 219, 79, 222]","[[0, 0, 0, 0, 134, 7, 190, 9, 1, 222, 79, 219, 221, 219, 79, 222], [0, 0, 0, 0, 9, 134, 7, 190, 1, 222, 79, 219, 221, 219, 79, 222], [0, 0, 0, 0, 190, 9, 134, 7, 1, 222, 79, 219, 221, 219, 79, 222], [0, 0, 0, 0, 7, 190, 9, 134, 1, 222, 79, 219, 221, 219, 79, 222]]"
PBDB-T,ITIC,-5.297714285714285,-3.4170000000000003,-5.574146341463415,-3.915,1.0,CB,_,160.0,MoOx,ZnO,8.6,8.57,0.831,71.1,"[0, 0, 0, 0, 49, 7, 100, 9, 1, 222, 79, 219, 221, 219, 79, 222]","[[0, 0, 0, 0, 49, 7, 100, 9, 1, 222, 79, 219, 221, 219, 79, 222], [0, 0, 0, 0, 9, 49, 7, 100, 1, 222, 79, 219, 221, 219, 79, 222], [0, 0, 0, 0, 100, 9, 49, 7, 1, 222, 79, 219, 221, 219, 79, 222], [0, 0, 0, 0, 7, 100, 9, 49, 1, 222, 79, 219, 221, 219, 79, 222]]"
PBDB-T,ITIC,-5.297714285714285,-3.4170000000000003,-5.574146341463415,-3.915,1.0,CB,DIO,25.0,MoOx,ZnO,10.53,10.67,0.87,64.15,"[0, 0, 0, 0, 49, 7, 100, 9, 1, 222, 79, 219, 221, 219, 79, 222]","[[0, 0, 0, 0, 49, 7, 100, 9, 1, 222, 79, 219, 221, 219, 79, 222], [0, 0, 0, 0, 9, 49, 7, 100, 1, 222, 79, 219, 221, 219, 79, 222], [0, 0, 0, 0, 100, 9, 49, 7, 1, 222, 79, 219, 221, 219, 79, 222], [0, 0, 0, 0, 7, 100, 9, 49, 1, 222, 79, 219, 221, 219, 79, 222]]"
J101,ITIC,-5.3,-3.5,-5.574146341463415,-3.915,1.0,CF,_,150.0,PEDOT:PSS,PDINO,12.47,12.4,0.951,73.65,"[0, 0, 0, 0, 214, 7, 215, 9, 1, 222, 79, 219, 221, 219, 79, 222]","[[0, 0, 0, 0, 214, 7, 215, 9, 1, 222, 79, 219, 221, 219, 79, 222], [0, 0, 0, 0, 9, 214, 7, 215, 1, 222, 79, 219, 221, 219, 79, 222], [0, 0, 0, 0, 215, 9, 214, 7, 1, 222, 79, 219, 221, 219, 79, 222], [0, 0, 0, 0, 7, 215, 9, 214, 1, 222, 79, 219, 221, 219, 79, 222]]"
J101,ZITI,-5.3,-3.5,-5.550000000000001,-3.78,1.0,CF,_,120.0,PEDOT:PSS,PDINO,14.43,14.43,0.937,72.48,"[0, 0, 214, 7, 215, 9, 1, 264, 7, 348, 221, 349, 221, 348, 7, 264]","[[0, 0, 214, 7, 215, 9, 1, 264, 7, 348, 221, 349, 221, 348, 7, 264], [0, 0, 9, 214, 7, 215, 1, 264, 7, 348, 221, 349, 221, 348, 7, 264], [0, 0, 215, 9, 214, 7, 1, 264, 7, 348, 221, 349, 221, 348, 7, 264], [0, 0, 7, 215, 9, 214, 1, 264, 7, 348, 221, 349, 221, 348, 7, 264]]"
J71,ZITI,-5.353333333333333,-3.4318181818181825,-5.550000000000001,-3.78,1.0,CF,_,25.0,PEDOT:PSS,PDINO,12.82,12.82,0.912,69.49,"[0, 0, 6, 7, 8, 9, 1, 264, 7, 348, 221, 349, 221, 348, 7, 264]","[[0, 0, 6, 7, 8, 9, 1, 264, 7, 348, 221, 349, 221, 348, 7, 264], [0, 0, 9, 6, 7, 8, 1, 264, 7, 348, 221, 349, 221, 348, 7, 264], [0, 0, 8, 9, 6, 7, 1, 264, 7, 348, 221, 349, 221, 348, 7, 264], [0, 0, 7, 8, 9, 6, 1, 264, 7, 348, 221, 349, 221, 348, 7, 264]]"
PTB7-Th,DICTF-C10,-5.204782608695651,-3.5391891891891896,-5.67,-3.89,0.667,o-DCB,_,25.0,MoOx,ZnO,6.93,8.33,0.865,50.0,"[0, 0, 0, 0, 0, 0, 0, 0, 49, 101, 1, 222, 7, 378, 7, 222]","[[0, 0, 0, 0, 0, 0, 0, 0, 49, 101, 1, 222, 7, 378, 7, 222], [0, 0, 0, 0, 0, 0, 0, 0, 101, 49, 1, 222, 7, 378, 7, 222]]"