Donor,Acceptor,HOMO_D_eV,LUMO_D_eV,HOMO_A_eV,LUMO_A_eV,D_A_ratio_m_m,solvent,solvent_additive,annealing_temperature,hole_contact_layer,electron_contact_layer,PCE_percent,calc_PCE_percent,Voc_V,FF_percent,DA_manual_tokenized,DA_manual_tokenized_aug
PBDB-T,IDT-Tz,-5.297714285714285,-3.4170000000000003,-5.62,-4.09,1.0,CB,CN,25.0,MoOx,ZnO,8.52,8.52,0.88,70.8,"[0, 0, 49, 7, 100, 9, 1, 222, 318, 221, 219, 221, 219, 221, 318, 222]","[[0, 0, 49, 7, 100, 9, 1, 222, 318, 221, 219, 221, 219, 221, 318, 222], [0, 0, 9, 49, 7, 100, 1, 222, 318, 221, 219, 221, 219, 221, 318, 222], [0, 0, 100, 9, 49, 7, 1, 222, 318, 221, 219, 221, 219, 221, 318, 222], [0, 0, 7, 100, 9, 49, 1, 222, 318, 221, 219, 221, 219, 221, 318, 222]]"
PTB7-Th,IDT-IC,-5.204782608695651,-3.5391891891891896,-5.693333333333334,-3.866666666666666,0.667,o-DCB,_,150.0,PEDOT:PSS,PDINO,3.16,3.16,0.83,40.0,"[0, 0, 0, 0, 0, 0, 49, 101, 1, 222, 7, 219, 221, 219, 7, 222]","[[0, 0, 0, 0, 0, 0, 49, 101, 1, 222, 7, 219, 221, 219, 7, 222], [0, 0, 0, 0, 0, 0, 101, 49, 1, 222, 7, 219, 221, 219, 7, 222]]"
PTB7-Th,IEIC,-5.204782608695651,-3.5391891891891896,-5.455,-3.8625,0.667,o-DCB,_,25.0,PEDOT:PSS,PDIN,6.31,6.31,0.97,48.0,"[0, 0, 0, 0, 49, 101, 1, 222, 64, 7, 219, 221, 219, 7, 64, 222]","[[0, 0, 0, 0, 49, 101, 1, 222, 64, 7, 219, 221, 219, 7, 64, 222], [0, 0, 0, 0, 101, 49, 1, 222, 64, 7, 219, 221, 219, 7, 64, 222]]"
PTB7-Th,IDT-N,-5.204782608695651,-3.5391891891891896,-5.73,-4.08,1.0,CF,_,100.0,PEDOT:PSS,PNDIT-F3N-Br,5.5,5.48,0.73,57.7,"[0, 0, 0, 0, 0, 0, 49, 101, 1, 237, 7, 219, 221, 219, 7, 237]","[[0, 0, 0, 0, 0, 0, 49, 101, 1, 237, 7, 219, 221, 219, 7, 237], [0, 0, 0, 0, 0, 0, 101, 49, 1, 237, 7, 219, 221, 219, 7, 237]]"
PTB7-Th,IDT-T-N,-5.204782608695651,-3.5391891891891896,-5.58,-4.06,1.0,CF,CN,100.0,PEDOT:PSS,PNDIT-F3N-Br,6.6,6.56,0.87,51.38,"[0, 0, 0, 0, 49, 101, 1, 237, 64, 7, 219, 221, 219, 7, 64, 237]","[[0, 0, 0, 0, 49, 101, 1, 237, 64, 7, 219, 221, 219, 7, 64, 237], [0, 0, 0, 0, 101, 49, 1, 237, 64, 7, 219, 221, 219, 7, 64, 237]]"
PBDB-T,IDT-N,-5.297714285714285,-3.4170000000000003,-5.73,-4.08,1.0,CF,CN,100.0,PEDOT:PSS,PNDIT-F3N-Br,8.99,9.02,0.79,71.91,"[0, 0, 0, 0, 49, 7, 100, 9, 1, 237, 7, 219, 221, 219, 7, 237]","[[0, 0, 0, 0, 49, 7, 100, 9, 1, 237, 7, 219, 221, 219, 7, 237], [0, 0, 0, 0, 9, 49, 7, 100, 1, 237, 7, 219, 221, 219, 7, 237], [0, 0, 0, 0, 100, 9, 49, 7, 1, 237, 7, 219, 221, 219, 7, 237], [0, 0, 0, 0, 7, 100, 9, 49, 1, 237, 7, 219, 221, 219, 7, 237]]"
PBDB-T,IDT-T-N,-5.297714285714285,-3.4170000000000003,-5.58,-4.06,1.0,CF,CN,100.0,PEDOT:PSS,PNDIT-F3N-Br,7.4,7.4,0.94,56.11,"[0, 0, 49, 7, 100, 9, 1, 237, 64, 7, 219, 221, 219, 7, 64, 237]","[[0, 0, 49, 7, 100, 9, 1, 237, 64, 7, 219, 221, 219, 7, 64, 237], [0, 0, 9, 49, 7, 100, 1, 237, 64, 7, 219, 221, 219, 7, 64, 237], [0, 0, 100, 9, 49, 7, 1, 237, 64, 7, 219, 221, 219, 7, 64, 237], [0, 0, 7, 100, 9, 49, 1, 237, 64, 7, 219, 221, 219, 7, 64, 237]]"
PBDB-T,IDT-EDOT,-5.297714285714285,-3.4170000000000003,-5.43,-3.8,0.833,o-DCB,DIO,25.0,MoOx,ZnO,11.32,11.38,0.86,62.0,"[0, 0, 49, 7, 100, 9, 1, 217, 319, 7, 219, 221, 219, 7, 319, 217]","[[0, 0, 49, 7, 100, 9, 1, 217, 319, 7, 219, 221, 219, 7, 319, 217], [0, 0, 9, 49, 7, 100, 1, 217, 319, 7, 219, 221, 219, 7, 319, 217], [0, 0, 100, 9, 49, 7, 1, 217, 319, 7, 219, 221, 219, 7, 319, 217], [0, 0, 7, 100, 9, 49, 1, 217, 319, 7, 219, 221, 219, 7, 319, 217]]"
PBDB-T,IDT-PDOT,-5.297714285714285,-3.4170000000000003,-5.39,-3.77,2.0,o-DCB,_,25.0,MoOx,ZnO,2.18,2.19,0.85,48.9,"[0, 0, 49, 7, 100, 9, 1, 217, 320, 7, 219, 221, 219, 7, 320, 217]","[[0, 0, 49, 7, 100, 9, 1, 217, 320, 7, 219, 221, 219, 7, 320, 217], [0, 0, 9, 49, 7, 100, 1, 217, 320, 7, 219, 221, 219, 7, 320, 217], [0, 0, 100, 9, 49, 7, 1, 217, 320, 7, 219, 221, 219, 7, 320, 217], [0, 0, 7, 100, 9, 49, 1, 217, 320, 7, 219, 221, 219, 7, 320, 217]]"
PTB7-Th,p-IDTIDT-IC,-5.204782608695651,-3.5391891891891896,-5.42,-3.82,0.667,o-DCB,_,150.0,PEDOT:PSS,PDINO,6.48,6.47,0.94,47.5,"[0, 0, 49, 101, 1, 222, 7, 219, 221, 219, 79, 219, 221, 219, 7, 222]","[[0, 0, 49, 101, 1, 222, 7, 219, 221, 219, 79, 219, 221, 219, 7, 222], [0, 0, 101, 49, 1, 222, 7, 219, 221, 219, 79, 219, 221, 219, 7, 222]]"
PBDB-TF,IDT-C6,-5.497142857142857,-3.6428571428571423,-5.59,-3.35,1.0,CF,DIO,100.0,PEDOT:PSS,PFN-Br,12.5,12.43,0.96,74.0,"[0, 0, 0, 0, 99, 7, 100, 9, 1, 230, 7, 234, 221, 234, 7, 230]","[[0, 0, 0, 0, 99, 7, 100, 9, 1, 230, 7, 234, 221, 234, 7, 230], [0, 0, 0, 0, 9, 99, 7, 100, 1, 230, 7, 234, 221, 234, 7, 230], [0, 0, 0, 0, 100, 9, 99, 7, 1, 230, 7, 234, 221, 234, 7, 230], [0, 0, 0, 0, 7, 100, 9, 99, 1, 230, 7, 234, 221, 234, 7, 230]]"
PBDB-TF,IDT-PhC6,-5.497142857142857,-3.6428571428571423,-5.56,-3.32,1.0,CF,DIO,100.0,PEDOT:PSS,PFN-Br,5.6,5.59,1.0,43.0,"[0, 0, 0, 0, 99, 7, 100, 9, 1, 230, 7, 219, 221, 219, 7, 230]","[[0, 0, 0, 0, 99, 7, 100, 9, 1, 230, 7, 219, 221, 219, 7, 230], [0, 0, 0, 0, 9, 99, 7, 100, 1, 230, 7, 219, 221, 219, 7, 230], [0, 0, 0, 0, 100, 9, 99, 7, 1, 230, 7, 219, 221, 219, 7, 230], [0, 0, 0, 0, 7, 100, 9, 99, 1, 230, 7, 219, 221, 219, 7, 230]]"
PTB7-Th,IDT-2BM,-5.204782608695651,-3.5391891891891896,-5.586666666666666,-4.083333333333333,0.667,CB,DPE,25.0,MoOx,ZnO,3.97,3.99,0.826,52.0,"[0, 0, 0, 0, 49, 101, 1, 305, 56, 7, 219, 221, 219, 7, 56, 305]","[[0, 0, 0, 0, 49, 101, 1, 305, 56, 7, 219, 221, 219, 7, 56, 305], [0, 0, 0, 0, 101, 49, 1, 305, 56, 7, 219, 221, 219, 7, 56, 305]]"
PBDB-T,FDNCTF,-5.297714285714285,-3.4170000000000003,-5.42,-3.73,1.25,CB,_,25.0,PEDOT:PSS,PDINO,10.0,9.8,0.94,66.0,"[0, 0, 49, 7, 100, 9, 1, 237, 7, 225, 221, 225, 221, 225, 7, 237]","[[0, 0, 49, 7, 100, 9, 1, 237, 7, 225, 221, 225, 221, 225, 7, 237], [0, 0, 9, 49, 7, 100, 1, 237, 7, 225, 221, 225, 221, 225, 7, 237], [0, 0, 100, 9, 49, 7, 1, 237, 7, 225, 221, 225, 221, 225, 7, 237], [0, 0, 7, 100, 9, 49, 1, 237, 7, 225, 221, 225, 221, 225, 7, 237]]"
PBDB-T,FDICTF,-5.297714285714285,-3.4170000000000003,-5.43,-3.71,1.25,CB,_,25.0,PEDOT:PSS,PDINO,11.2,10.99,0.93,72.5,"[0, 0, 49, 7, 100, 9, 1, 222, 7, 225, 221, 225, 221, 225, 7, 222]","[[0, 0, 49, 7, 100, 9, 1, 222, 7, 225, 221, 225, 221, 225, 7, 222], [0, 0, 9, 49, 7, 100, 1, 222, 7, 225, 221, 225, 221, 225, 7, 222], [0, 0, 100, 9, 49, 7, 1, 222, 7, 225, 221, 225, 221, 225, 7, 222], [0, 0, 7, 100, 9, 49, 1, 222, 7, 225, 221, 225, 221, 225, 7, 222]]"
PTB7-Th,DTNR,-5.204782608695651,-3.5391891891891896,-5.22,-3.5,0.667,CB,CN,25.0,MoOx,ZnO,9.51,9.51,1.08,56.0,"[0, 0, 0, 0, 49, 101, 1, 240, 56, 7, 260, 267, 260, 7, 56, 240]","[[0, 0, 0, 0, 49, 101, 1, 240, 56, 7, 260, 267, 260, 7, 56, 240], [0, 0, 0, 0, 101, 49, 1, 240, 56, 7, 260, 267, 260, 7, 56, 240]]"
PBDB-T,DTNIC6,-5.297714285714285,-3.4170000000000003,-5.87,-3.92,1.0,CB,_,25.0,MoOx,TiO2:TOPD,3.39,3.38,0.96,45.63,"[0, 0, 0, 0, 49, 7, 100, 9, 1, 222, 7, 234, 267, 234, 7, 222]","[[0, 0, 0, 0, 49, 7, 100, 9, 1, 222, 7, 234, 267, 234, 7, 222], [0, 0, 0, 0, 9, 49, 7, 100, 1, 222, 7, 234, 267, 234, 7, 222], [0, 0, 0, 0, 100, 9, 49, 7, 1, 222, 7, 234, 267, 234, 7, 222], [0, 0, 0, 0, 7, 100, 9, 49, 1, 222, 7, 234, 267, 234, 7, 222]]"
PBDB-T,DTNIC8,-5.297714285714285,-3.4170000000000003,-5.91,-3.93,1.0,CB,_,25.0,MoOx,TiO2:TOPD,9.03,9.03,0.96,72.84,"[0, 0, 0, 0, 49, 7, 100, 9, 1, 222, 7, 260, 267, 260, 7, 222]","[[0, 0, 0, 0, 49, 7, 100, 9, 1, 222, 7, 260, 267, 260, 7, 222], [0, 0, 0, 0, 9, 49, 7, 100, 1, 222, 7, 260, 267, 260, 7, 222], [0, 0, 0, 0, 100, 9, 49, 7, 1, 222, 7, 260, 267, 260, 7, 222], [0, 0, 0, 0, 7, 100, 9, 49, 1, 222, 7, 260, 267, 260, 7, 222]]"
PTB7-Th,DTCC-IC,-5.204782608695651,-3.5391891891891896,-5.5,-3.87,1.0,CF,CN,100.0,PEDOT:PSS,Ca,6.0,6.0,0.95,56.2,"[0, 0, 0, 0, 49, 101, 1, 217, 7, 321, 221, 322, 221, 321, 7, 217]","[[0, 0, 0, 0, 49, 101, 1, 217, 7, 321, 221, 322, 221, 321, 7, 217], [0, 0, 0, 0, 101, 49, 1, 217, 7, 321, 221, 322, 221, 321, 7, 217]]"
P3HT,DNIT-TT2T,-5.057777777777777,-2.989444444444445,-5.94,-3.75,1.0,o-DCB,_,130.0,PEDOT:PSS,Ca,1.25,1.25,0.88,43.47,"[0, 0, 0, 0, 0, 0, 41, 40, 40, 194, 1, 323, 7, 324, 7, 323]","[[0, 0, 0, 0, 0, 0, 41, 40, 40, 194, 1, 323, 7, 324, 7, 323], [0, 0, 0, 0, 0, 0, 194, 41, 40, 40, 1, 323, 7, 324, 7, 323], [0, 0, 0, 0, 0, 0, 40, 194, 41, 40, 1, 323, 7, 324, 7, 323], [0, 0, 0, 0, 0, 0, 40, 40, 194, 41, 1, 323, 7, 324, 7, 323]]"
PTB7-Th,DICTF,-5.204782608695651,-3.5391891891891896,-5.67,-3.79,0.714,CF,_,100.0,PEDOT:PSS,PDIN,7.63,7.63,0.85,55.0,"[0, 0, 0, 0, 0, 0, 49, 101, 1, 222, 7, 221, 225, 221, 7, 222]","[[0, 0, 0, 0, 0, 0, 49, 101, 1, 222, 7, 221, 225, 221, 7, 222], [0, 0, 0, 0, 0, 0, 101, 49, 1, 222, 7, 221, 225, 221, 7, 222]]"
P1_BDT-TBT,PY1,-5.1,-3.48,-5.27,-4.0,0.5,CF,DIO,25.0,PEDOT:PSS,PFN-Br,4.89,4.89,0.83,56.0,"[0, 0, 0, 0, 39, 7, 56, 9, 1, 325, 40, 40, 369, 40, 40, 325]","[[0, 0, 0, 0, 39, 7, 56, 9, 1, 325, 40, 40, 369, 40, 40, 325], [0, 0, 0, 0, 9, 39, 7, 56, 1, 325, 40, 40, 369, 40, 40, 325], [0, 0, 0, 0, 56, 9, 39, 7, 1, 325, 40, 40, 369, 40, 40, 325], [0, 0, 0, 0, 7, 56, 9, 39, 1, 325, 40, 40, 369, 40, 40, 325]]"
P1_BDT-TBT,DCI-2,-5.1,-3.48,-5.24,-4.05,0.5,CF,DIO,25.0,PEDOT:PSS,PFN-Br,6.94,6.94,0.8,63.0,"[0, 0, 39, 7, 56, 9, 1, 222, 40, 40, 7, 326, 7, 40, 40, 222]","[[0, 0, 39, 7, 56, 9, 1, 222, 40, 40, 7, 326, 7, 40, 40, 222], [0, 0, 9, 39, 7, 56, 1, 222, 40, 40, 7, 326, 7, 40, 40, 222], [0, 0, 56, 9, 39, 7, 1, 222, 40, 40, 7, 326, 7, 40, 40, 222], [0, 0, 7, 56, 9, 39, 1, 222, 40, 40, 7, 326, 7, 40, 40, 222]]"
PBDTTT-C-T,DC-IDT2F,-5.128,-3.268,-5.44,-3.88,2.0,o-DCB,_,25.0,MoOx,PEIE,3.08,3.08,0.96,50.8,"[0, 0, 0, 0, 49, 112, 1, 222, 28, 221, 219, 221, 219, 221, 28, 222]","[[0, 0, 0, 0, 49, 112, 1, 222, 28, 221, 219, 221, 219, 221, 28, 222], [0, 0, 0, 0, 112, 49, 1, 222, 28, 221, 219, 221, 219, 221, 28, 222]]"
PTB7-Th,IM-IDT,-5.204782608695651,-3.5391891891891896,-5.44,-4.0,1.0,o-DCB,DPE,100.0,PEDOT:PSS,Ca,1.6,1.41,0.58,49.16,"[0, 0, 0, 0, 0, 0, 49, 101, 1, 327, 7, 219, 221, 219, 7, 327]","[[0, 0, 0, 0, 0, 0, 49, 101, 1, 327, 7, 219, 221, 219, 7, 327], [0, 0, 0, 0, 0, 0, 101, 49, 1, 327, 7, 219, 221, 219, 7, 327]]"
PTB7-Th,TIM-IDT,-5.204782608695651,-3.5391891891891896,-5.36,-4.01,1.0,o-DCB,_,25.0,PEDOT:PSS,Ca,1.63,1.44,0.6,45.53,"[0, 0, 0, 0, 0, 0, 49, 101, 1, 328, 7, 219, 221, 219, 7, 328]","[[0, 0, 0, 0, 0, 0, 49, 101, 1, 328, 7, 219, 221, 219, 7, 328], [0, 0, 0, 0, 0, 0, 101, 49, 1, 328, 7, 219, 221, 219, 7, 328]]"
PTB7-Th,COTIC-4F,-5.204782608695651,-3.5391891891891896,-5.26,-4.16,0.667,CB,CN,25.0,MoOx,ZnO,6.4,6.4,0.56,56.3,"[0, 0, 0, 0, 0, 0, 49, 101, 1, 222, 229, 7, 260, 7, 229, 222]","[[0, 0, 0, 0, 0, 0, 49, 101, 1, 222, 229, 7, 260, 7, 229, 222], [0, 0, 0, 0, 0, 0, 101, 49, 1, 222, 229, 7, 260, 7, 229, 222]]"
PTB7-Th,SiOTIC-4F,-5.204782608695651,-3.5391891891891896,-5.28,-4.11,0.667,CF,CN,25.0,MoOx,ZnO,8.6,8.62,0.65,61.4,"[0, 0, 0, 0, 0, 0, 49, 101, 1, 217, 229, 7, 329, 7, 229, 217]","[[0, 0, 0, 0, 0, 0, 49, 101, 1, 217, 229, 7, 329, 7, 229, 217], [0, 0, 0, 0, 0, 0, 101, 49, 1, 217, 229, 7, 329, 7, 229, 217]]"
P3HT,BTA100,-5.057777777777777,-2.989444444444445,-4.98,-2.81,1.0,CF,_,100.0,PEDOT:PSS,Ca,1.04,1.04,1.34,47.0,"[0, 0, 41, 40, 40, 194, 1, 333, 334, 7, 219, 221, 219, 7, 334, 333]","[[0, 0, 41, 40, 40, 194, 1, 333, 334, 7, 219, 221, 219, 7, 334, 333], [0, 0, 194, 41, 40, 40, 1, 333, 334, 7, 219, 221, 219, 7, 334, 333], [0, 0, 40, 194, 41, 40, 1, 333, 334, 7, 219, 221, 219, 7, 334, 333], [0, 0, 40, 40, 194, 41, 1, 333, 334, 7, 219, 221, 219, 7, 334, 333]]"
P3HT,BTA101,-5.057777777777777,-2.989444444444445,-5.05,-2.99,1.0,CF,_,120.0,PEDOT:PSS,Ca,3.55,3.55,1.19,56.0,"[0, 0, 41, 40, 40, 194, 1, 240, 334, 7, 219, 221, 219, 7, 334, 240]","[[0, 0, 41, 40, 40, 194, 1, 240, 334, 7, 219, 221, 219, 7, 334, 240], [0, 0, 194, 41, 40, 40, 1, 240, 334, 7, 219, 221, 219, 7, 334, 240], [0, 0, 40, 194, 41, 40, 1, 240, 334, 7, 219, 221, 219, 7, 334, 240], [0, 0, 40, 40, 194, 41, 1, 240, 334, 7, 219, 221, 219, 7, 334, 240]]"
P3HT,BTA103,-5.057777777777777,-2.989444444444445,-5.21,-3.18,0.5,CF,_,120.0,PEDOT:PSS,Ca,5.31,5.31,0.94,66.0,"[0, 0, 41, 40, 40, 194, 1, 236, 334, 7, 219, 221, 219, 7, 334, 236]","[[0, 0, 41, 40, 40, 194, 1, 236, 334, 7, 219, 221, 219, 7, 334, 236], [0, 0, 194, 41, 40, 40, 1, 236, 334, 7, 219, 221, 219, 7, 334, 236], [0, 0, 40, 194, 41, 40, 1, 236, 334, 7, 219, 221, 219, 7, 334, 236], [0, 0, 40, 40, 194, 41, 1, 236, 334, 7, 219, 221, 219, 7, 334, 236]]"
PTB7-Th,6TIC,-5.204782608695651,-3.5391891891891896,-5.33,-3.885,0.667,CB,DIO,150.0,MoOx,ZnO,11.07,11.06,0.831,66.16,"[0, 0, 0, 0, 0, 0, 49, 101, 1, 222, 79, 219, 79, 219, 79, 222]","[[0, 0, 0, 0, 0, 0, 49, 101, 1, 222, 79, 219, 79, 219, 79, 222], [0, 0, 0, 0, 0, 0, 101, 49, 1, 222, 79, 219, 79, 219, 79, 222]]"
PTB7-Th,COi8DFIC,-5.204782608695651,-3.5391891891891896,-5.5,-3.88,1.0,CB,DIO,25.0,MoOx,ZnO,12.16,12.11,0.68,68.2,"[0, 0, 0, 0, 0, 0, 49, 101, 1, 217, 79, 335, 79, 335, 79, 217]","[[0, 0, 0, 0, 0, 0, 49, 101, 1, 217, 79, 335, 79, 335, 79, 217], [0, 0, 0, 0, 0, 0, 101, 49, 1, 217, 79, 335, 79, 335, 79, 217]]"
PTB7-Th,IDT-2BR,-5.204782608695651,-3.5391891891891896,-5.52,-3.69,1.0,o-DCB:CF (4:1),CN,25.0,PEDOT:PSS,Ca,7.7,8.32,0.99,60.0,"[0, 0, 0, 0, 49, 101, 1, 240, 56, 7, 219, 221, 219, 7, 56, 240]","[[0, 0, 0, 0, 49, 101, 1, 240, 56, 7, 219, 221, 219, 7, 56, 240], [0, 0, 0, 0, 101, 49, 1, 240, 56, 7, 219, 221, 219, 7, 56, 240]]"
PTB7-Th,IDT-2BR1,-5.204782608695651,-3.5391891891891896,-5.37,-3.67,1.0,o-DCB:CF (4:1),CN,25.0,PEDOT:PSS,Ca,8.7,8.66,0.95,60.0,"[0, 0, 0, 0, 49, 101, 1, 240, 56, 7, 234, 221, 234, 7, 56, 240]","[[0, 0, 0, 0, 49, 101, 1, 240, 56, 7, 234, 221, 234, 7, 56, 240], [0, 0, 0, 0, 101, 49, 1, 240, 56, 7, 234, 221, 234, 7, 56, 240]]"
PTB7-Th,ATT-2,-5.204782608695651,-3.5391891891891896,-5.5,-3.9,0.556,CB,CN,25.0,MoOx,ZnO,9.58,9.54,0.73,63.0,"[0, 0, 0, 0, 49, 101, 1, 222, 336, 7, 219, 221, 219, 7, 336, 222]","[[0, 0, 0, 0, 49, 101, 1, 222, 336, 7, 219, 221, 219, 7, 336, 222], [0, 0, 0, 0, 101, 49, 1, 222, 336, 7, 219, 221, 219, 7, 336, 222]]"
PTB7-Th,T1,-5.204782608695651,-3.5391891891891896,-5.42,-3.91,0.556,CB,_,25.0,MoOx,ZnO,9.82,9.8,0.72,65.0,"[0, 0, 0, 0, 49, 101, 1, 222, 337, 7, 219, 221, 219, 7, 337, 222]","[[0, 0, 0, 0, 49, 101, 1, 222, 337, 7, 219, 221, 219, 7, 337, 222], [0, 0, 0, 0, 101, 49, 1, 222, 337, 7, 219, 221, 219, 7, 337, 222]]"
PTB7-Th,T2,-5.204782608695651,-3.5391891891891896,-5.34,-3.96,0.556,CB,_,25.0,MoOx,ZnO,10.1,10.02,0.67,66.0,"[0, 0, 0, 0, 49, 101, 1, 264, 337, 7, 219, 221, 219, 7, 337, 264]","[[0, 0, 0, 0, 49, 101, 1, 264, 337, 7, 219, 221, 219, 7, 337, 264], [0, 0, 0, 0, 101, 49, 1, 264, 337, 7, 219, 221, 219, 7, 337, 264]]"
PTB7-Th,T3,-5.204782608695651,-3.5391891891891896,-5.31,-4.0,0.556,CB,_,25.0,MoOx,ZnO,9.43,9.39,0.61,70.0,"[0, 0, 0, 0, 49, 101, 1, 217, 337, 7, 219, 221, 219, 7, 337, 217]","[[0, 0, 0, 0, 49, 101, 1, 217, 337, 7, 219, 221, 219, 7, 337, 217], [0, 0, 0, 0, 101, 49, 1, 217, 337, 7, 219, 221, 219, 7, 337, 217]]"
PTB7-Th,ATT-1,-5.204782608695651,-3.5391891891891896,-5.5,-3.63,0.667,o-DCB,DIO,25.0,PEDOT:PSS,PFN-Br,10.07,10.04,0.87,70.0,"[0, 0, 0, 0, 49, 101, 1, 236, 336, 7, 219, 221, 219, 7, 336, 236]","[[0, 0, 0, 0, 49, 101, 1, 236, 336, 7, 219, 221, 219, 7, 336, 236], [0, 0, 0, 0, 101, 49, 1, 236, 336, 7, 219, 221, 219, 7, 336, 236]]"
PDBT-T1,IC-C6IDT-IC,-5.36,-3.43,-5.69,-3.91,1.0,CF,_,25.0,MoOx,ZnO,8.71,8.71,0.89,65.0,"[0, 0, 0, 0, 149, 7, 100, 9, 1, 222, 7, 234, 221, 234, 7, 222]","[[0, 0, 0, 0, 149, 7, 100, 9, 1, 222, 7, 234, 221, 234, 7, 222], [0, 0, 0, 0, 9, 149, 7, 100, 1, 222, 7, 234, 221, 234, 7, 222], [0, 0, 0, 0, 100, 9, 149, 7, 1, 222, 7, 234, 221, 234, 7, 222], [0, 0, 0, 0, 7, 100, 9, 149, 1, 222, 7, 234, 221, 234, 7, 222]]"
PBDTT-6ttTPD,ITIC,-5.36,-3.51,-5.574146341463415,-3.915,1.0,CF,DIO,25.0,MoOx,ZnO,9.98,9.98,0.942,67.8,"[0, 0, 0, 0, 195, 117, 196, 119, 1, 222, 79, 219, 221, 219, 79, 222]","[[0, 0, 0, 0, 195, 117, 196, 119, 1, 222, 79, 219, 221, 219, 79, 222], [0, 0, 0, 0, 119, 195, 117, 196, 1, 222, 79, 219, 221, 219, 79, 222], [0, 0, 0, 0, 196, 119, 195, 117, 1, 222, 79, 219, 221, 219, 79, 222], [0, 0, 0, 0, 117, 196, 119, 195, 1, 222, 79, 219, 221, 219, 79, 222]]"
PMOT16,ITIC,-5.52,-3.66,-5.574146341463415,-3.915,1.0,CF,DIO,25.0,MoOx,ZnO,7.63,7.64,1.001,58.7,"[0, 0, 0, 0, 116, 117, 118, 119, 1, 222, 79, 219, 221, 219, 79, 222]","[[0, 0, 0, 0, 116, 117, 118, 119, 1, 222, 79, 219, 221, 219, 79, 222], [0, 0, 0, 0, 119, 116, 117, 118, 1, 222, 79, 219, 221, 219, 79, 222], [0, 0, 0, 0, 118, 119, 116, 117, 1, 222, 79, 219, 221, 219, 79, 222], [0, 0, 0, 0, 117, 118, 119, 116, 1, 222, 79, 219, 221, 219, 79, 222]]"
PBDTT-6ttTPD,IDIC,-5.36,-3.51,-5.706,-4.002666666666667,1.0,CF,DIO,25.0,MoOx,ZnO,8.58,8.58,0.822,65.5,"[0, 0, 0, 0, 195, 117, 196, 119, 1, 222, 7, 234, 221, 234, 7, 222]","[[0, 0, 0, 0, 195, 117, 196, 119, 1, 222, 7, 234, 221, 234, 7, 222], [0, 0, 0, 0, 119, 195, 117, 196, 1, 222, 7, 234, 221, 234, 7, 222], [0, 0, 0, 0, 196, 119, 195, 117, 1, 222, 7, 234, 221, 234, 7, 222], [0, 0, 0, 0, 117, 196, 119, 195, 1, 222, 7, 234, 221, 234, 7, 222]]"
PMOT16,IDIC,-5.52,-3.66,-5.706,-4.002666666666667,1.0,CF,DIO,25.0,MoOx,ZnO,10.04,10.04,0.925,67.3,"[0, 0, 0, 0, 116, 117, 118, 119, 1, 222, 7, 234, 221, 234, 7, 222]","[[0, 0, 0, 0, 116, 117, 118, 119, 1, 222, 7, 234, 221, 234, 7, 222], [0, 0, 0, 0, 119, 116, 117, 118, 1, 222, 7, 234, 221, 234, 7, 222], [0, 0, 0, 0, 118, 119, 116, 117, 1, 222, 7, 234, 221, 234, 7, 222], [0, 0, 0, 0, 117, 118, 119, 116, 1, 222, 7, 234, 221, 234, 7, 222]]"
PTZP,IDIC,-5.41,-3.4,-5.706,-4.002666666666667,0.667,CB,DIO,25.0,PEDOT:PSS,PFN-Br,11.8,11.81,0.9,73.3,"[0, 0, 0, 0, 108, 64, 120, 65, 1, 222, 7, 234, 221, 234, 7, 222]","[[0, 0, 0, 0, 108, 64, 120, 65, 1, 222, 7, 234, 221, 234, 7, 222], [0, 0, 0, 0, 65, 108, 64, 120, 1, 222, 7, 234, 221, 234, 7, 222], [0, 0, 0, 0, 120, 65, 108, 64, 1, 222, 7, 234, 221, 234, 7, 222], [0, 0, 0, 0, 64, 120, 65, 108, 1, 222, 7, 234, 221, 234, 7, 222]]"
PffBT2T-TT,O-IDTBR,-5.42,-3.52,-5.535,-3.74,0.667,"1,2,4-trimethylbenzene",_,90.0,V2O5,ZnO,10.4,10.36,1.08,67.0,"[0, 0, 81, 121, 22, 122, 1, 240, 56, 7, 225, 221, 225, 7, 56, 240]","[[0, 0, 81, 121, 22, 122, 1, 240, 56, 7, 225, 221, 225, 7, 56, 240], [0, 0, 122, 81, 121, 22, 1, 240, 56, 7, 225, 221, 225, 7, 56, 240], [0, 0, 22, 122, 81, 121, 1, 240, 56, 7, 225, 221, 225, 7, 56, 240], [0, 0, 121, 22, 122, 81, 1, 240, 56, 7, 225, 221, 225, 7, 56, 240]]"
PffBT4T-2OD,EH-IDTBR,-5.32,-3.695,-5.58,-3.9,0.667,o-xylene,_,100.0,MoOx,ZnO,9.5,9.49,1.08,60.0,"[0, 69, 22, 95, 7, 9, 1, 240, 56, 7, 260, 221, 260, 7, 56, 240]","[[0, 69, 22, 95, 7, 9, 1, 240, 56, 7, 260, 221, 260, 7, 56, 240], [0, 9, 69, 22, 95, 7, 1, 240, 56, 7, 260, 221, 260, 7, 56, 240], [0, 7, 9, 69, 22, 95, 1, 240, 56, 7, 260, 221, 260, 7, 56, 240], [0, 95, 7, 9, 69, 22, 1, 240, 56, 7, 260, 221, 260, 7, 56, 240], [0, 22, 95, 7, 9, 69, 1, 240, 56, 7, 260, 221, 260, 7, 56, 240]]"
PTB7-Th,IDT-BT-R,-5.204782608695651,-3.5391891891891896,-5.3,-3.56,0.667,DCB,_,150.0,PEDOT:PSS,Ca,8.2,8.2,1.02,59.1,"[0, 0, 0, 0, 49, 101, 1, 240, 56, 7, 219, 221, 219, 7, 56, 240]","[[0, 0, 0, 0, 49, 101, 1, 240, 56, 7, 219, 221, 219, 7, 56, 240], [0, 0, 0, 0, 101, 49, 1, 240, 56, 7, 219, 221, 219, 7, 56, 240]]"
PTB7-Th,IDT-BT-R-CN,-5.204782608695651,-3.5391891891891896,-5.38,-3.67,0.5,DCB,_,150.0,PEDOT:PSS,Ca,5.5,5.47,0.88,50.1,"[0, 0, 0, 0, 49, 101, 1, 338, 56, 7, 219, 221, 219, 7, 56, 338]","[[0, 0, 0, 0, 49, 101, 1, 338, 56, 7, 219, 221, 219, 7, 56, 338], [0, 0, 0, 0, 101, 49, 1, 338, 56, 7, 219, 221, 219, 7, 56, 338]]"
P3HT,I-IDTBTRh,-5.057777777777777,-2.989444444444445,-5.42,-3.68,1.25,CF,_,140.0,PEDOT:PSS,Ca,5.38,5.38,0.86,71.0,"[0, 0, 41, 40, 40, 194, 1, 240, 56, 7, 321, 221, 321, 7, 56, 240]","[[0, 0, 41, 40, 40, 194, 1, 240, 56, 7, 321, 221, 321, 7, 56, 240], [0, 0, 194, 41, 40, 40, 1, 240, 56, 7, 321, 221, 321, 7, 56, 240], [0, 0, 40, 194, 41, 40, 1, 240, 56, 7, 321, 221, 321, 7, 56, 240], [0, 0, 40, 40, 194, 41, 1, 240, 56, 7, 321, 221, 321, 7, 56, 240]]"