Donor,Acceptor,HOMO_D_eV,LUMO_D_eV,HOMO_A_eV,LUMO_A_eV,D_A_ratio_m_m,solvent,total_solids_conc_mg_mL,solvent_additive,annealing_temperature,PCE_percent,calc_PCE_percent,Voc_V,FF_percent,DA_manual_tokenized,DA_manual_tokenized_aug
J71,ZITI-4F,-5.353333333333333,-3.4318181818181825,-5.66,-3.81,1.0,CF,18.0,_,120.0,13.18,13.17,0.85,72.76,"[0, 0, 0, 0, 6, 7, 8, 9, 1, 217, 295, 221, 296, 221, 295, 217]","[[0, 0, 0, 0, 6, 7, 8, 9, 1, 217, 295, 221, 296, 221, 295, 217], [0, 0, 0, 0, 9, 6, 7, 8, 1, 217, 295, 221, 296, 221, 295, 217], [0, 0, 0, 0, 8, 9, 6, 7, 1, 217, 295, 221, 296, 221, 295, 217], [0, 0, 0, 0, 7, 8, 9, 6, 1, 217, 295, 221, 296, 221, 295, 217]]"
J71,ZITI,-5.353333333333333,-3.4318181818181825,-5.550000000000001,-3.78,1.0,CF,17.0,_,120.0,13.04,12.91,0.93,68.61,"[0, 0, 6, 7, 8, 9, 1, 264, 7, 348, 221, 349, 221, 348, 7, 264]","[[0, 0, 6, 7, 8, 9, 1, 264, 7, 348, 221, 349, 221, 348, 7, 264], [0, 0, 9, 6, 7, 8, 1, 264, 7, 348, 221, 349, 221, 348, 7, 264], [0, 0, 8, 9, 6, 7, 1, 264, 7, 348, 221, 349, 221, 348, 7, 264], [0, 0, 7, 8, 9, 6, 1, 264, 7, 348, 221, 349, 221, 348, 7, 264]]"
P3HT,O-IDTBR,-5.057777777777777,-2.989444444444445,-5.535,-3.74,1.0,CB,24.0,_,130.0,6.3,6.0,0.72,60.0,"[0, 0, 41, 40, 40, 194, 1, 240, 56, 7, 225, 221, 225, 7, 56, 240]","[[0, 0, 41, 40, 40, 194, 1, 240, 56, 7, 225, 221, 225, 7, 56, 240], [0, 0, 194, 41, 40, 40, 1, 240, 56, 7, 225, 221, 225, 7, 56, 240], [0, 0, 40, 194, 41, 40, 1, 240, 56, 7, 225, 221, 225, 7, 56, 240], [0, 0, 40, 40, 194, 41, 1, 240, 56, 7, 225, 221, 225, 7, 56, 240]]"
P3HT,EH-IDTBR,-5.057777777777777,-2.989444444444445,-5.58,-3.9,1.0,CB,24.0,_,130.0,6.0,5.7,0.76,62.0,"[0, 0, 41, 40, 40, 194, 1, 240, 56, 7, 260, 221, 260, 7, 56, 240]","[[0, 0, 41, 40, 40, 194, 1, 240, 56, 7, 260, 221, 260, 7, 56, 240], [0, 0, 194, 41, 40, 40, 1, 240, 56, 7, 260, 221, 260, 7, 56, 240], [0, 0, 40, 194, 41, 40, 1, 240, 56, 7, 260, 221, 260, 7, 56, 240], [0, 0, 40, 40, 194, 41, 1, 240, 56, 7, 260, 221, 260, 7, 56, 240]]"
P3HT,FBR,-5.057777777777777,-2.989444444444445,-5.786666666666666,-3.673333333333333,1.0,CF:DCB (80:20),16.0,_,110.0,4.11,4.11,0.82,63.0,"[0, 0, 0, 0, 41, 40, 40, 194, 1, 240, 56, 221, 225, 221, 56, 240]","[[0, 0, 0, 0, 41, 40, 40, 194, 1, 240, 56, 221, 225, 221, 56, 240], [0, 0, 0, 0, 194, 41, 40, 40, 1, 240, 56, 221, 225, 221, 56, 240], [0, 0, 0, 0, 40, 194, 41, 40, 1, 240, 56, 221, 225, 221, 56, 240], [0, 0, 0, 0, 40, 40, 194, 41, 1, 240, 56, 221, 225, 221, 56, 240]]"
PBDB-T,IDTCN,-5.297714285714285,-3.4170000000000003,-5.890000000000001,-3.93,1.0,CB,20.0,DIO,110.0,6.4,6.4,0.85,62.48,"[0, 0, 0, 0, 49, 7, 100, 9, 1, 255, 7, 219, 221, 219, 7, 255]","[[0, 0, 0, 0, 49, 7, 100, 9, 1, 255, 7, 219, 221, 219, 7, 255], [0, 0, 0, 0, 9, 49, 7, 100, 1, 255, 7, 219, 221, 219, 7, 255], [0, 0, 0, 0, 100, 9, 49, 7, 1, 255, 7, 219, 221, 219, 7, 255], [0, 0, 0, 0, 7, 100, 9, 49, 1, 255, 7, 219, 221, 219, 7, 255]]"
P3HT,NAI-FN-NAI(BO),-5.057777777777777,-2.989444444444445,-6.07,-3.96,1.0,CB,20.0,_,25.0,3.8,3.93,0.9,47.0,"[0, 0, 0, 0, 0, 0, 41, 40, 40, 194, 1, 299, 7, 300, 7, 299]","[[0, 0, 0, 0, 0, 0, 41, 40, 40, 194, 1, 299, 7, 300, 7, 299], [0, 0, 0, 0, 0, 0, 194, 41, 40, 40, 1, 299, 7, 300, 7, 299], [0, 0, 0, 0, 0, 0, 40, 194, 41, 40, 1, 299, 7, 300, 7, 299], [0, 0, 0, 0, 0, 0, 40, 40, 194, 41, 1, 299, 7, 300, 7, 299]]"
P3HT,NAI-FN-NAI(DT),-5.057777777777777,-2.989444444444445,-6.09,-3.97,1.0,CB,20.0,_,25.0,0.75,0.79,0.89,35.0,"[0, 0, 0, 0, 0, 0, 41, 40, 40, 194, 1, 376, 7, 300, 7, 376]","[[0, 0, 0, 0, 0, 0, 41, 40, 40, 194, 1, 376, 7, 300, 7, 376], [0, 0, 0, 0, 0, 0, 194, 41, 40, 40, 1, 376, 7, 300, 7, 376], [0, 0, 0, 0, 0, 0, 40, 194, 41, 40, 1, 376, 7, 300, 7, 376], [0, 0, 0, 0, 0, 0, 40, 40, 194, 41, 1, 376, 7, 300, 7, 376]]"
P3HT,PI-FN-PI(DT),-5.057777777777777,-2.989444444444445,-6.02,-3.92,1.0,CB,20.0,_,25.0,2.2,2.16,0.91,48.0,"[0, 0, 0, 0, 0, 0, 41, 40, 40, 194, 1, 377, 7, 300, 7, 377]","[[0, 0, 0, 0, 0, 0, 41, 40, 40, 194, 1, 377, 7, 300, 7, 377], [0, 0, 0, 0, 0, 0, 194, 41, 40, 40, 1, 377, 7, 300, 7, 377], [0, 0, 0, 0, 0, 0, 40, 194, 41, 40, 1, 377, 7, 300, 7, 377], [0, 0, 0, 0, 0, 0, 40, 40, 194, 41, 1, 377, 7, 300, 7, 377]]"
PTzBI,ITIC,-5.34,-3.46,-5.574146341463415,-3.915,1.0,CB,20.0,DBE,130.0,10.24,10.24,0.87,64.34,"[0, 0, 0, 0, 49, 7, 111, 9, 1, 222, 79, 219, 221, 219, 79, 222]","[[0, 0, 0, 0, 49, 7, 111, 9, 1, 222, 79, 219, 221, 219, 79, 222], [0, 0, 0, 0, 9, 49, 7, 111, 1, 222, 79, 219, 221, 219, 79, 222], [0, 0, 0, 0, 111, 9, 49, 7, 1, 222, 79, 219, 221, 219, 79, 222], [0, 0, 0, 0, 7, 111, 9, 49, 1, 222, 79, 219, 221, 219, 79, 222]]"
FTAZ,INIC1,-5.43,-3.3200000000000003,-5.54,-3.97,0.667,CF,12.5,DIO,25.0,10.1,9.93,0.929,64.3,"[0, 0, 0, 0, 60, 7, 20, 9, 1, 303, 269, 219, 221, 219, 269, 303]","[[0, 0, 0, 0, 60, 7, 20, 9, 1, 303, 269, 219, 221, 219, 269, 303], [0, 0, 0, 0, 9, 60, 7, 20, 1, 303, 269, 219, 221, 219, 269, 303], [0, 0, 0, 0, 20, 9, 60, 7, 1, 303, 269, 219, 221, 219, 269, 303], [0, 0, 0, 0, 7, 20, 9, 60, 1, 303, 269, 219, 221, 219, 269, 303]]"
FTAZ,INIC3,-5.43,-3.3200000000000003,-5.52,-4.02,0.667,CF,12.5,DIO,25.0,11.5,11.23,0.857,67.4,"[0, 0, 0, 0, 60, 7, 20, 9, 1, 217, 269, 219, 221, 219, 269, 217]","[[0, 0, 0, 0, 60, 7, 20, 9, 1, 217, 269, 219, 221, 219, 269, 217], [0, 0, 0, 0, 9, 60, 7, 20, 1, 217, 269, 219, 221, 219, 269, 217], [0, 0, 0, 0, 20, 9, 60, 7, 1, 217, 269, 219, 221, 219, 269, 217], [0, 0, 0, 0, 7, 20, 9, 60, 1, 217, 269, 219, 221, 219, 269, 217]]"
PTB7-Th,F8IC,-5.204782608695651,-3.5391891891891896,-5.43,-4.0,0.588,CF,10.0,DPE,25.0,10.9,10.87,0.64,67.6,"[0, 0, 0, 0, 0, 0, 49, 101, 1, 217, 79, 219, 79, 219, 79, 217]","[[0, 0, 0, 0, 0, 0, 49, 101, 1, 217, 79, 219, 79, 219, 79, 217], [0, 0, 0, 0, 0, 0, 101, 49, 1, 217, 79, 219, 79, 219, 79, 217]]"
Pff4TBT-2DT,FBR,-5.34,-3.7,-5.786666666666666,-3.673333333333333,1.0,CB,20.0,_,25.0,7.8,7.86,1.12,61.0,"[0, 0, 0, 113, 22, 114, 7, 9, 1, 240, 56, 221, 225, 221, 56, 240]","[[0, 0, 0, 113, 22, 114, 7, 9, 1, 240, 56, 221, 225, 221, 56, 240], [0, 0, 0, 9, 113, 22, 114, 7, 1, 240, 56, 221, 225, 221, 56, 240], [0, 0, 0, 7, 9, 113, 22, 114, 1, 240, 56, 221, 225, 221, 56, 240], [0, 0, 0, 114, 7, 9, 113, 22, 1, 240, 56, 221, 225, 221, 56, 240], [0, 0, 0, 22, 114, 7, 9, 113, 1, 240, 56, 221, 225, 221, 56, 240]]"
Pff4TBT-2DT,FTTB,-5.34,-3.7,-5.65,-3.62,1.0,CB,20.0,_,25.0,5.0,4.87,1.05,45.0,"[0, 0, 0, 113, 22, 114, 7, 9, 1, 266, 7, 221, 225, 221, 7, 266]","[[0, 0, 0, 113, 22, 114, 7, 9, 1, 266, 7, 221, 225, 221, 7, 266], [0, 0, 0, 9, 113, 22, 114, 7, 1, 266, 7, 221, 225, 221, 7, 266], [0, 0, 0, 7, 9, 113, 22, 114, 1, 266, 7, 221, 225, 221, 7, 266], [0, 0, 0, 114, 7, 9, 113, 22, 1, 266, 7, 221, 225, 221, 7, 266], [0, 0, 0, 22, 114, 7, 9, 113, 1, 266, 7, 221, 225, 221, 7, 266]]"
Pff4TBT-2DT,IDFBR,-5.34,-3.7,-5.75,-3.7,1.0,CB,20.0,_,25.0,1.75,1.81,1.08,38.0,"[0, 113, 22, 114, 7, 9, 1, 240, 56, 221, 260, 221, 260, 221, 56, 240]","[[0, 113, 22, 114, 7, 9, 1, 240, 56, 221, 260, 221, 260, 221, 56, 240], [0, 9, 113, 22, 114, 7, 1, 240, 56, 221, 260, 221, 260, 221, 56, 240], [0, 7, 9, 113, 22, 114, 1, 240, 56, 221, 260, 221, 260, 221, 56, 240], [0, 114, 7, 9, 113, 22, 1, 240, 56, 221, 260, 221, 260, 221, 56, 240], [0, 22, 114, 7, 9, 113, 1, 240, 56, 221, 260, 221, 260, 221, 56, 240]]"
Pff4TBT-2DT,IDTBR,-5.34,-3.7,-5.5,-3.9,1.0,CB,20.0,_,25.0,9.95,9.95,1.07,62.0,"[0, 113, 22, 114, 7, 9, 1, 240, 56, 7, 225, 221, 225, 7, 56, 240]","[[0, 113, 22, 114, 7, 9, 1, 240, 56, 7, 225, 221, 225, 7, 56, 240], [0, 9, 113, 22, 114, 7, 1, 240, 56, 7, 225, 221, 225, 7, 56, 240], [0, 7, 9, 113, 22, 114, 1, 240, 56, 7, 225, 221, 225, 7, 56, 240], [0, 114, 7, 9, 113, 22, 1, 240, 56, 7, 225, 221, 225, 7, 56, 240], [0, 22, 114, 7, 9, 113, 1, 240, 56, 7, 225, 221, 225, 7, 56, 240]]"
J71,TTz1,-5.353333333333333,-3.4318181818181825,-5.59,-3.66,0.5,CF,15.0,DIO,25.0,8.77,8.77,0.9,63.18,"[0, 0, 0, 0, 6, 7, 8, 9, 1, 305, 56, 135, 120, 306, 56, 305]","[[0, 0, 0, 0, 6, 7, 8, 9, 1, 305, 56, 135, 120, 306, 56, 305], [0, 0, 0, 0, 9, 6, 7, 8, 1, 305, 56, 135, 120, 306, 56, 305], [0, 0, 0, 0, 8, 9, 6, 7, 1, 305, 56, 135, 120, 306, 56, 305], [0, 0, 0, 0, 7, 8, 9, 6, 1, 305, 56, 135, 120, 306, 56, 305]]"
J71,TTz2,-5.353333333333333,-3.4318181818181825,-5.45,-3.5,0.5,CF,15.0,DIO,25.0,6.3,6.3,0.92,53.73,"[0, 0, 0, 0, 6, 7, 8, 9, 1, 236, 56, 135, 120, 306, 56, 236]","[[0, 0, 0, 0, 6, 7, 8, 9, 1, 236, 56, 135, 120, 306, 56, 236], [0, 0, 0, 0, 9, 6, 7, 8, 1, 236, 56, 135, 120, 306, 56, 236], [0, 0, 0, 0, 8, 9, 6, 7, 1, 236, 56, 135, 120, 306, 56, 236], [0, 0, 0, 0, 7, 8, 9, 6, 1, 236, 56, 135, 120, 306, 56, 236]]"
PBDB-T,FTIC-C8C6,-5.297714285714285,-3.4170000000000003,-5.62,-3.83,1.0,DCB,8.0,DIO,25.0,9.91,9.99,0.92,67.46,"[0, 0, 49, 7, 100, 9, 1, 222, 7, 234, 221, 225, 221, 234, 7, 222]","[[0, 0, 49, 7, 100, 9, 1, 222, 7, 234, 221, 225, 221, 234, 7, 222], [0, 0, 9, 49, 7, 100, 1, 222, 7, 234, 221, 225, 221, 234, 7, 222], [0, 0, 100, 9, 49, 7, 1, 222, 7, 234, 221, 225, 221, 234, 7, 222], [0, 0, 7, 100, 9, 49, 1, 222, 7, 234, 221, 225, 221, 234, 7, 222]]"
PBDB-T,FTIC-C6C6,-5.297714285714285,-3.4170000000000003,-5.6,-3.81,1.0,DCB,8.0,DIO,25.0,9.18,9.21,0.91,63.17,"[0, 0, 49, 7, 100, 9, 1, 222, 7, 234, 221, 234, 221, 234, 7, 222]","[[0, 0, 49, 7, 100, 9, 1, 222, 7, 234, 221, 234, 221, 234, 7, 222], [0, 0, 9, 49, 7, 100, 1, 222, 7, 234, 221, 234, 221, 234, 7, 222], [0, 0, 100, 9, 49, 7, 1, 222, 7, 234, 221, 234, 221, 234, 7, 222], [0, 0, 7, 100, 9, 49, 1, 222, 7, 234, 221, 234, 221, 234, 7, 222]]"
PBDB-T,FTIC-C6C8,-5.297714285714285,-3.4170000000000003,-5.64,-3.81,1.0,DCB,8.0,DIO,25.0,11.12,11.05,0.92,64.72,"[0, 0, 49, 7, 100, 9, 1, 222, 7, 225, 221, 234, 221, 225, 7, 222]","[[0, 0, 49, 7, 100, 9, 1, 222, 7, 225, 221, 234, 221, 225, 7, 222], [0, 0, 9, 49, 7, 100, 1, 222, 7, 225, 221, 234, 221, 225, 7, 222], [0, 0, 100, 9, 49, 7, 1, 222, 7, 225, 221, 234, 221, 225, 7, 222], [0, 0, 7, 100, 9, 49, 1, 222, 7, 225, 221, 234, 221, 225, 7, 222]]"
PBDB-T,IXIC,-5.297714285714285,-3.4170000000000003,-5.13,-3.78,1.0,CF,14.0,_,100.0,11.3,11.21,0.82,65.4,"[0, 0, 0, 0, 49, 7, 100, 9, 1, 222, 79, 219, 79, 219, 79, 222]","[[0, 0, 0, 0, 49, 7, 100, 9, 1, 222, 79, 219, 79, 219, 79, 222], [0, 0, 0, 0, 9, 49, 7, 100, 1, 222, 79, 219, 79, 219, 79, 222], [0, 0, 0, 0, 100, 9, 49, 7, 1, 222, 79, 219, 79, 219, 79, 222], [0, 0, 0, 0, 7, 100, 9, 49, 1, 222, 79, 219, 79, 219, 79, 222]]"
PBDB-T,IXIC-4Cl,-5.297714285714285,-3.4170000000000003,-5.2,-3.95,1.0,CF,14.0,_,100.0,11.2,11.25,0.69,71.2,"[0, 0, 0, 0, 49, 7, 100, 9, 1, 231, 79, 219, 79, 219, 79, 231]","[[0, 0, 0, 0, 49, 7, 100, 9, 1, 231, 79, 219, 79, 219, 79, 231], [0, 0, 0, 0, 9, 49, 7, 100, 1, 231, 79, 219, 79, 219, 79, 231], [0, 0, 0, 0, 100, 9, 49, 7, 1, 231, 79, 219, 79, 219, 79, 231], [0, 0, 0, 0, 7, 100, 9, 49, 1, 231, 79, 219, 79, 219, 79, 231]]"
HFQx-T,ITTC,-5.45,-3.5,-5.49,-3.85,1.0,CF,18.0,_,130.0,10.4,10.3,0.88,71.0,"[0, 0, 0, 0, 49, 7, 115, 9, 1, 255, 79, 219, 221, 219, 79, 255]","[[0, 0, 0, 0, 49, 7, 115, 9, 1, 255, 79, 219, 221, 219, 79, 255], [0, 0, 0, 0, 9, 49, 7, 115, 1, 255, 79, 219, 221, 219, 79, 255], [0, 0, 0, 0, 115, 9, 49, 7, 1, 255, 79, 219, 221, 219, 79, 255], [0, 0, 0, 0, 7, 115, 9, 49, 1, 255, 79, 219, 221, 219, 79, 255]]"
PBDB-T,IT-OM-1,-5.297714285714285,-3.4170000000000003,-5.5,-3.76,1.0,CB,20.0,_,150.0,6.3,6.34,1.01,51.0,"[0, 0, 0, 0, 49, 7, 100, 9, 1, 309, 79, 219, 221, 219, 79, 309]","[[0, 0, 0, 0, 49, 7, 100, 9, 1, 309, 79, 219, 221, 219, 79, 309], [0, 0, 0, 0, 9, 49, 7, 100, 1, 309, 79, 219, 221, 219, 79, 309], [0, 0, 0, 0, 100, 9, 49, 7, 1, 309, 79, 219, 221, 219, 79, 309], [0, 0, 0, 0, 7, 100, 9, 49, 1, 309, 79, 219, 221, 219, 79, 309]]"
PBDB-T,IT-OM-2,-5.297714285714285,-3.4170000000000003,-5.49,-3.86,1.0,CB,20.0,_,150.0,11.8,11.9,0.93,73.0,"[0, 0, 0, 0, 49, 7, 100, 9, 1, 281, 79, 219, 221, 219, 79, 281]","[[0, 0, 0, 0, 49, 7, 100, 9, 1, 281, 79, 219, 221, 219, 79, 281], [0, 0, 0, 0, 9, 49, 7, 100, 1, 281, 79, 219, 221, 219, 79, 281], [0, 0, 0, 0, 100, 9, 49, 7, 1, 281, 79, 219, 221, 219, 79, 281], [0, 0, 0, 0, 7, 100, 9, 49, 1, 281, 79, 219, 221, 219, 79, 281]]"
PBDB-T,IT-OM-3,-5.297714285714285,-3.4170000000000003,-5.52,-3.8,1.0,CB,20.0,_,150.0,10.8,10.8,0.97,68.0,"[0, 0, 0, 0, 49, 7, 100, 9, 1, 310, 79, 219, 221, 219, 79, 310]","[[0, 0, 0, 0, 49, 7, 100, 9, 1, 310, 79, 219, 221, 219, 79, 310], [0, 0, 0, 0, 9, 49, 7, 100, 1, 310, 79, 219, 221, 219, 79, 310], [0, 0, 0, 0, 100, 9, 49, 7, 1, 310, 79, 219, 221, 219, 79, 310], [0, 0, 0, 0, 7, 100, 9, 49, 1, 310, 79, 219, 221, 219, 79, 310]]"
PBDB-T,IT-OM-4,-5.297714285714285,-3.4170000000000003,-5.49,-3.81,1.0,CB,20.0,_,150.0,7.9,7.9,0.96,56.0,"[0, 0, 0, 0, 49, 7, 100, 9, 1, 311, 79, 219, 221, 219, 79, 311]","[[0, 0, 0, 0, 49, 7, 100, 9, 1, 311, 79, 219, 221, 219, 79, 311], [0, 0, 0, 0, 9, 49, 7, 100, 1, 311, 79, 219, 221, 219, 79, 311], [0, 0, 0, 0, 100, 9, 49, 7, 1, 311, 79, 219, 221, 219, 79, 311], [0, 0, 0, 0, 7, 100, 9, 49, 1, 311, 79, 219, 221, 219, 79, 311]]"
PBDB-T,ITCT-DM,-5.297714285714285,-3.4170000000000003,-5.48,-3.9,1.0,CB,20.0,DIO,120.0,10.56,9.59,0.904,65.0,"[0, 0, 0, 0, 49, 7, 100, 9, 1, 312, 79, 219, 221, 219, 79, 312]","[[0, 0, 0, 0, 49, 7, 100, 9, 1, 312, 79, 219, 221, 219, 79, 312], [0, 0, 0, 0, 9, 49, 7, 100, 1, 312, 79, 219, 221, 219, 79, 312], [0, 0, 0, 0, 100, 9, 49, 7, 1, 312, 79, 219, 221, 219, 79, 312], [0, 0, 0, 0, 7, 100, 9, 49, 1, 312, 79, 219, 221, 219, 79, 312]]"
PBDB-T,ITCT,-5.297714285714285,-3.4170000000000003,-5.596666666666667,-3.796666666666667,1.0,CB,20.0,_,120.0,11.27,10.94,0.85,72.0,"[0, 0, 0, 0, 49, 7, 100, 9, 1, 255, 79, 219, 221, 219, 79, 255]","[[0, 0, 0, 0, 49, 7, 100, 9, 1, 255, 79, 219, 221, 219, 79, 255], [0, 0, 0, 0, 9, 49, 7, 100, 1, 255, 79, 219, 221, 219, 79, 255], [0, 0, 0, 0, 100, 9, 49, 7, 1, 255, 79, 219, 221, 219, 79, 255], [0, 0, 0, 0, 7, 100, 9, 49, 1, 255, 79, 219, 221, 219, 79, 255]]"
PBDB-T,ITCPTC-Th,-5.297714285714285,-3.4170000000000003,-5.68,-4.03,1.0,CB,20.0,DIO,25.0,10.61,10.61,0.856,72.7,"[0, 0, 0, 0, 49, 7, 100, 9, 1, 255, 79, 313, 221, 313, 79, 255]","[[0, 0, 0, 0, 49, 7, 100, 9, 1, 255, 79, 313, 221, 313, 79, 255], [0, 0, 0, 0, 9, 49, 7, 100, 1, 255, 79, 313, 221, 313, 79, 255], [0, 0, 0, 0, 100, 9, 49, 7, 1, 255, 79, 313, 221, 313, 79, 255], [0, 0, 0, 0, 7, 100, 9, 49, 1, 255, 79, 313, 221, 313, 79, 255]]"
PBDB-T,ITCPTC-Se,-5.297714285714285,-3.4170000000000003,-5.65,-4.0,1.0,CB,20.0,DIO,25.0,9.02,9.02,0.869,68.3,"[0, 0, 0, 0, 49, 7, 100, 9, 1, 255, 79, 317, 221, 317, 79, 255]","[[0, 0, 0, 0, 49, 7, 100, 9, 1, 255, 79, 317, 221, 317, 79, 255], [0, 0, 0, 0, 9, 49, 7, 100, 1, 255, 79, 317, 221, 317, 79, 255], [0, 0, 0, 0, 100, 9, 49, 7, 1, 255, 79, 317, 221, 317, 79, 255], [0, 0, 0, 0, 7, 100, 9, 49, 1, 255, 79, 317, 221, 317, 79, 255]]"
PBDB-T,ITCC,-5.297714285714285,-3.4170000000000003,-5.47,-3.76,1.0,CB,20.0,DIO,100.0,11.28,11.28,0.98,71.32,"[0, 0, 0, 0, 49, 7, 100, 9, 1, 270, 79, 219, 221, 219, 79, 270]","[[0, 0, 0, 0, 49, 7, 100, 9, 1, 270, 79, 219, 221, 219, 79, 270], [0, 0, 0, 0, 9, 49, 7, 100, 1, 270, 79, 219, 221, 219, 79, 270], [0, 0, 0, 0, 100, 9, 49, 7, 1, 270, 79, 219, 221, 219, 79, 270], [0, 0, 0, 0, 7, 100, 9, 49, 1, 270, 79, 219, 221, 219, 79, 270]]"
PBDB-T,MeIC,-5.297714285714285,-3.4170000000000003,-5.57,-3.93,1.0,CB,20.0,DIO,120.0,12.03,12.03,0.896,74.3,"[0, 0, 0, 0, 49, 7, 100, 9, 1, 227, 79, 219, 221, 219, 79, 227]","[[0, 0, 0, 0, 49, 7, 100, 9, 1, 227, 79, 219, 221, 219, 79, 227], [0, 0, 0, 0, 9, 49, 7, 100, 1, 227, 79, 219, 221, 219, 79, 227], [0, 0, 0, 0, 100, 9, 49, 7, 1, 227, 79, 219, 221, 219, 79, 227], [0, 0, 0, 0, 7, 100, 9, 49, 1, 227, 79, 219, 221, 219, 79, 227]]"
PTB7-Th,IFTIC,-5.204782608695651,-3.5391891891891896,-5.42,-3.85,0.5,o-DCB,25.0,_,25.0,5.77,5.71,0.9,53.5,"[0, 0, 0, 0, 49, 101, 1, 222, 7, 221, 225, 221, 225, 221, 7, 222]","[[0, 0, 0, 0, 49, 101, 1, 222, 7, 221, 225, 221, 225, 221, 7, 222], [0, 0, 0, 0, 101, 49, 1, 222, 7, 221, 225, 221, 225, 221, 7, 222]]"
PBDTTT-C-T,IDT-2BM,-5.128,-3.268,-5.586666666666666,-4.083333333333333,1.5,o-DCB,30.0,CN,25.0,4.19,4.06,0.76,54.4,"[0, 0, 0, 0, 49, 112, 1, 305, 56, 7, 219, 221, 219, 7, 56, 305]","[[0, 0, 0, 0, 49, 112, 1, 305, 56, 7, 219, 221, 219, 7, 56, 305], [0, 0, 0, 0, 112, 49, 1, 305, 56, 7, 219, 221, 219, 7, 56, 305]]"
PBDTTT-C-T,IDTT-2BM,-5.128,-3.268,-5.5,-3.8,1.5,o-DCB,30.0,DIO,25.0,4.7,4.64,0.845,56.8,"[0, 0, 0, 0, 49, 112, 1, 305, 56, 79, 219, 221, 219, 79, 56, 305]","[[0, 0, 0, 0, 49, 112, 1, 305, 56, 79, 219, 221, 219, 79, 56, 305], [0, 0, 0, 0, 112, 49, 1, 305, 56, 79, 219, 221, 219, 79, 56, 305]]"
PTB7-Th,IDT-T,-5.204782608695651,-3.5391891891891896,-5.49,-3.985,0.769,CB,10.0,CN,25.0,4.08,4.08,0.84,50.9,"[0, 0, 0, 0, 49, 101, 1, 222, 7, 7, 219, 221, 219, 7, 7, 222]","[[0, 0, 0, 0, 49, 101, 1, 222, 7, 7, 219, 221, 219, 7, 7, 222], [0, 0, 0, 0, 101, 49, 1, 222, 7, 7, 219, 221, 219, 7, 7, 222]]"
PBDB-T,IDT-Tz,-5.297714285714285,-3.4170000000000003,-5.62,-4.09,1.0,CB,10.0,CN,25.0,8.52,8.52,0.88,70.8,"[0, 0, 49, 7, 100, 9, 1, 222, 318, 221, 219, 221, 219, 221, 318, 222]","[[0, 0, 49, 7, 100, 9, 1, 222, 318, 221, 219, 221, 219, 221, 318, 222], [0, 0, 9, 49, 7, 100, 1, 222, 318, 221, 219, 221, 219, 221, 318, 222], [0, 0, 100, 9, 49, 7, 1, 222, 318, 221, 219, 221, 219, 221, 318, 222], [0, 0, 7, 100, 9, 49, 1, 222, 318, 221, 219, 221, 219, 221, 318, 222]]"
PTB7-Th,IDT-T-N,-5.204782608695651,-3.5391891891891896,-5.58,-4.06,1.0,CF,10.0,CN,100.0,6.6,6.56,0.87,51.38,"[0, 0, 0, 0, 49, 101, 1, 237, 64, 7, 219, 221, 219, 7, 64, 237]","[[0, 0, 0, 0, 49, 101, 1, 237, 64, 7, 219, 221, 219, 7, 64, 237], [0, 0, 0, 0, 101, 49, 1, 237, 64, 7, 219, 221, 219, 7, 64, 237]]"
PBDB-T,IDT-N,-5.297714285714285,-3.4170000000000003,-5.73,-4.08,1.0,CF,10.0,CN,100.0,8.99,9.02,0.79,71.91,"[0, 0, 0, 0, 49, 7, 100, 9, 1, 237, 7, 219, 221, 219, 7, 237]","[[0, 0, 0, 0, 49, 7, 100, 9, 1, 237, 7, 219, 221, 219, 7, 237], [0, 0, 0, 0, 9, 49, 7, 100, 1, 237, 7, 219, 221, 219, 7, 237], [0, 0, 0, 0, 100, 9, 49, 7, 1, 237, 7, 219, 221, 219, 7, 237], [0, 0, 0, 0, 7, 100, 9, 49, 1, 237, 7, 219, 221, 219, 7, 237]]"
PBDB-TF,IDT-C6,-5.497142857142857,-3.6428571428571423,-5.59,-3.35,1.0,CF,16.0,DIO,100.0,12.5,12.43,0.96,74.0,"[0, 0, 0, 0, 99, 7, 100, 9, 1, 230, 7, 234, 221, 234, 7, 230]","[[0, 0, 0, 0, 99, 7, 100, 9, 1, 230, 7, 234, 221, 234, 7, 230], [0, 0, 0, 0, 9, 99, 7, 100, 1, 230, 7, 234, 221, 234, 7, 230], [0, 0, 0, 0, 100, 9, 99, 7, 1, 230, 7, 234, 221, 234, 7, 230], [0, 0, 0, 0, 7, 100, 9, 99, 1, 230, 7, 234, 221, 234, 7, 230]]"
PBDB-T,FDNCTF,-5.297714285714285,-3.4170000000000003,-5.42,-3.73,1.25,CB,19.8,_,25.0,10.0,9.8,0.94,66.0,"[0, 0, 49, 7, 100, 9, 1, 237, 7, 225, 221, 225, 221, 225, 7, 237]","[[0, 0, 49, 7, 100, 9, 1, 237, 7, 225, 221, 225, 221, 225, 7, 237], [0, 0, 9, 49, 7, 100, 1, 237, 7, 225, 221, 225, 221, 225, 7, 237], [0, 0, 100, 9, 49, 7, 1, 237, 7, 225, 221, 225, 221, 225, 7, 237], [0, 0, 7, 100, 9, 49, 1, 237, 7, 225, 221, 225, 221, 225, 7, 237]]"
PBDB-T,FDICTF,-5.297714285714285,-3.4170000000000003,-5.43,-3.71,1.25,CB,19.8,_,25.0,11.2,10.99,0.93,72.5,"[0, 0, 49, 7, 100, 9, 1, 222, 7, 225, 221, 225, 221, 225, 7, 222]","[[0, 0, 49, 7, 100, 9, 1, 222, 7, 225, 221, 225, 221, 225, 7, 222], [0, 0, 9, 49, 7, 100, 1, 222, 7, 225, 221, 225, 221, 225, 7, 222], [0, 0, 100, 9, 49, 7, 1, 222, 7, 225, 221, 225, 221, 225, 7, 222], [0, 0, 7, 100, 9, 49, 1, 222, 7, 225, 221, 225, 221, 225, 7, 222]]"
PTB7-Th,DTNR,-5.204782608695651,-3.5391891891891896,-5.22,-3.5,0.667,CB,20.0,CN,25.0,9.51,9.51,1.08,56.0,"[0, 0, 0, 0, 49, 101, 1, 240, 56, 7, 260, 267, 260, 7, 56, 240]","[[0, 0, 0, 0, 49, 101, 1, 240, 56, 7, 260, 267, 260, 7, 56, 240], [0, 0, 0, 0, 101, 49, 1, 240, 56, 7, 260, 267, 260, 7, 56, 240]]"
PBDB-T,DTNIC6,-5.297714285714285,-3.4170000000000003,-5.87,-3.92,1.0,CB,18.0,_,25.0,3.39,3.38,0.96,45.63,"[0, 0, 0, 0, 49, 7, 100, 9, 1, 222, 7, 234, 267, 234, 7, 222]","[[0, 0, 0, 0, 49, 7, 100, 9, 1, 222, 7, 234, 267, 234, 7, 222], [0, 0, 0, 0, 9, 49, 7, 100, 1, 222, 7, 234, 267, 234, 7, 222], [0, 0, 0, 0, 100, 9, 49, 7, 1, 222, 7, 234, 267, 234, 7, 222], [0, 0, 0, 0, 7, 100, 9, 49, 1, 222, 7, 234, 267, 234, 7, 222]]"