Donor,Acceptor,HOMO_D_eV,LUMO_D_eV,HOMO_A_eV,LUMO_A_eV,D_A_ratio_m_m,solvent,total_solids_conc_mg_mL,solvent_additive,annealing_temperature,PCE_percent,calc_PCE_percent,Voc_V,FF_percent,DA_manual_tokenized,DA_manual_tokenized_aug
J71,IT-IC,-5.353333333333333,-3.4318181818181825,-5.58,-3.88,0.833,CF,16.0,_,25.0,9.3,9.04,0.96,63.6,"[0, 0, 0, 0, 6, 7, 8, 9, 1, 222, 79, 219, 221, 219, 79, 222]","[[0, 0, 0, 0, 6, 7, 8, 9, 1, 222, 79, 219, 221, 219, 79, 222], [0, 0, 0, 0, 9, 6, 7, 8, 1, 222, 79, 219, 221, 219, 79, 222], [0, 0, 0, 0, 8, 9, 6, 7, 1, 222, 79, 219, 221, 219, 79, 222], [0, 0, 0, 0, 7, 8, 9, 6, 1, 222, 79, 219, 221, 219, 79, 222]]"
J71,BDT-IC,-5.353333333333333,-3.4318181818181825,-5.51,-3.9,0.833,CF,16.0,_,25.0,10.9,10.42,0.92,65.5,"[0, 0, 6, 7, 8, 9, 1, 222, 7, 219, 218, 221, 218, 219, 7, 222]","[[0, 0, 6, 7, 8, 9, 1, 222, 7, 219, 218, 221, 218, 219, 7, 222], [0, 0, 9, 6, 7, 8, 1, 222, 7, 219, 218, 221, 218, 219, 7, 222], [0, 0, 8, 9, 6, 7, 1, 222, 7, 219, 218, 221, 218, 219, 7, 222], [0, 0, 7, 8, 9, 6, 1, 222, 7, 219, 218, 221, 218, 219, 7, 222]]"
PBDB-T-2F,IT-4F,-5.47,-3.67,-5.66875,-4.060416666666667,1.0,CB,20.0,_,100.0,13.59,13.59,0.86,76.0,"[0, 0, 0, 0, 99, 7, 100, 9, 1, 217, 79, 219, 221, 219, 79, 217]","[[0, 0, 0, 0, 99, 7, 100, 9, 1, 217, 79, 219, 221, 219, 79, 217], [0, 0, 0, 0, 9, 99, 7, 100, 1, 217, 79, 219, 221, 219, 79, 217], [0, 0, 0, 0, 100, 9, 99, 7, 1, 217, 79, 219, 221, 219, 79, 217], [0, 0, 0, 0, 7, 100, 9, 99, 1, 217, 79, 219, 221, 219, 79, 217]]"
PBDB-T-2Cl,IT-4F,-5.51,-3.71,-5.66875,-4.060416666666667,1.0,CB,20.0,_,100.0,14.29,14.29,0.89,78.0,"[0, 0, 0, 0, 138, 7, 100, 9, 1, 217, 79, 219, 221, 219, 79, 217]","[[0, 0, 0, 0, 138, 7, 100, 9, 1, 217, 79, 219, 221, 219, 79, 217], [0, 0, 0, 0, 9, 138, 7, 100, 1, 217, 79, 219, 221, 219, 79, 217], [0, 0, 0, 0, 100, 9, 138, 7, 1, 217, 79, 219, 221, 219, 79, 217], [0, 0, 0, 0, 7, 100, 9, 138, 1, 217, 79, 219, 221, 219, 79, 217]]"
PBDB-T-2Cl,IT-4Cl,-5.51,-3.71,-5.75,-4.09,1.0,CF,14.0,_,100.0,13.37,13.19,0.81,74.0,"[0, 0, 0, 0, 138, 7, 100, 9, 1, 231, 79, 219, 221, 219, 79, 231]","[[0, 0, 0, 0, 138, 7, 100, 9, 1, 231, 79, 219, 221, 219, 79, 231], [0, 0, 0, 0, 9, 138, 7, 100, 1, 231, 79, 219, 221, 219, 79, 231], [0, 0, 0, 0, 100, 9, 138, 7, 1, 231, 79, 219, 221, 219, 79, 231], [0, 0, 0, 0, 7, 100, 9, 138, 1, 231, 79, 219, 221, 219, 79, 231]]"
P1_PDTB-EF-T,IT-4F,-5.51,-3.59,-5.66875,-4.060416666666667,1.0,CB,18.0,DIO,25.0,11.5,11.5,0.896,64.0,"[0, 0, 0, 0, 0, 46, 7, 47, 1, 217, 79, 219, 221, 219, 79, 217]","[[0, 0, 0, 0, 0, 46, 7, 47, 1, 217, 79, 219, 221, 219, 79, 217], [0, 0, 0, 0, 0, 47, 46, 7, 1, 217, 79, 219, 221, 219, 79, 217], [0, 0, 0, 0, 0, 7, 47, 46, 1, 217, 79, 219, 221, 219, 79, 217]]"
P2_PDTB-EF-T,IT-4F,-5.5,-3.59,-5.66875,-4.060416666666667,1.0,CB,18.0,DIO,150.0,14.2,14.19,0.9,76.0,"[0, 0, 0, 0, 200, 201, 7, 202, 1, 217, 79, 219, 221, 219, 79, 217]","[[0, 0, 0, 0, 200, 201, 7, 202, 1, 217, 79, 219, 221, 219, 79, 217], [0, 0, 0, 0, 202, 200, 201, 7, 1, 217, 79, 219, 221, 219, 79, 217], [0, 0, 0, 0, 7, 202, 200, 201, 1, 217, 79, 219, 221, 219, 79, 217], [0, 0, 0, 0, 201, 7, 202, 200, 1, 217, 79, 219, 221, 219, 79, 217]]"
P3_PDTB-EF-T,IT-4F,-5.54,-3.6,-5.66875,-4.060416666666667,1.0,CB,18.0,DIO,25.0,11.2,11.2,0.904,61.0,"[0, 0, 0, 0, 27, 203, 7, 204, 1, 217, 79, 219, 221, 219, 79, 217]","[[0, 0, 0, 0, 27, 203, 7, 204, 1, 217, 79, 219, 221, 219, 79, 217], [0, 0, 0, 0, 204, 27, 203, 7, 1, 217, 79, 219, 221, 219, 79, 217], [0, 0, 0, 0, 7, 204, 27, 203, 1, 217, 79, 219, 221, 219, 79, 217], [0, 0, 0, 0, 203, 7, 204, 27, 1, 217, 79, 219, 221, 219, 79, 217]]"
PBDB-T,ITC6-IC,-5.297714285714285,-3.4170000000000003,-5.73,-3.92,1.0,CB,12.5,_,125.0,11.61,11.62,0.97,73.0,"[0, 0, 0, 0, 49, 7, 100, 9, 1, 222, 117, 219, 221, 219, 117, 222]","[[0, 0, 0, 0, 49, 7, 100, 9, 1, 222, 117, 219, 221, 219, 117, 222], [0, 0, 0, 0, 9, 49, 7, 100, 1, 222, 117, 219, 221, 219, 117, 222], [0, 0, 0, 0, 100, 9, 49, 7, 1, 222, 117, 219, 221, 219, 117, 222], [0, 0, 0, 0, 7, 100, 9, 49, 1, 222, 117, 219, 221, 219, 117, 222]]"
PBDB-T,ATT-6,-5.297714285714285,-3.4170000000000003,-5.45,-3.61,1.0,CF,15.0,_,160.0,8.22,8.36,0.96,59.37,"[0, 0, 49, 7, 100, 9, 1, 236, 336, 7, 228, 221, 228, 7, 336, 236]","[[0, 0, 49, 7, 100, 9, 1, 236, 336, 7, 228, 221, 228, 7, 336, 236], [0, 0, 9, 49, 7, 100, 1, 236, 336, 7, 228, 221, 228, 7, 336, 236], [0, 0, 100, 9, 49, 7, 1, 236, 336, 7, 228, 221, 228, 7, 336, 236], [0, 0, 7, 100, 9, 49, 1, 236, 336, 7, 228, 221, 228, 7, 336, 236]]"
PBDB-T,ATT-7,-5.297714285714285,-3.4170000000000003,-5.48,-3.66,1.0,CF,15.0,_,160.0,10.12,10.34,0.97,66.67,"[0, 0, 49, 7, 100, 9, 1, 222, 336, 7, 351, 221, 351, 7, 336, 222]","[[0, 0, 49, 7, 100, 9, 1, 222, 336, 7, 351, 221, 351, 7, 336, 222], [0, 0, 9, 49, 7, 100, 1, 222, 336, 7, 351, 221, 351, 7, 336, 222], [0, 0, 100, 9, 49, 7, 1, 222, 336, 7, 351, 221, 351, 7, 336, 222], [0, 0, 7, 100, 9, 49, 1, 222, 336, 7, 351, 221, 351, 7, 336, 222]]"
PBDB-T,Y1,-5.297714285714285,-3.4170000000000003,-5.45,-3.95,1.0,CB,16.0,CN,25.0,13.42,13.49,0.87,69.1,"[0, 0, 0, 0, 0, 0, 49, 7, 100, 9, 1, 222, 79, 352, 79, 222]","[[0, 0, 0, 0, 0, 0, 49, 7, 100, 9, 1, 222, 79, 352, 79, 222], [0, 0, 0, 0, 0, 0, 9, 49, 7, 100, 1, 222, 79, 352, 79, 222], [0, 0, 0, 0, 0, 0, 100, 9, 49, 7, 1, 222, 79, 352, 79, 222], [0, 0, 0, 0, 0, 0, 7, 100, 9, 49, 1, 222, 79, 352, 79, 222]]"
PBDB-T,Y2,-5.297714285714285,-3.4170000000000003,-5.43,-4.04,1.0,CB,16.0,CN,25.0,13.4,13.41,0.82,69.4,"[0, 0, 0, 0, 0, 0, 49, 7, 100, 9, 1, 255, 79, 352, 79, 255]","[[0, 0, 0, 0, 0, 0, 49, 7, 100, 9, 1, 255, 79, 352, 79, 255], [0, 0, 0, 0, 0, 0, 9, 49, 7, 100, 1, 255, 79, 352, 79, 255], [0, 0, 0, 0, 0, 0, 100, 9, 49, 7, 1, 255, 79, 352, 79, 255], [0, 0, 0, 0, 0, 0, 7, 100, 9, 49, 1, 255, 79, 352, 79, 255]]"
PTBB-o,ITCPTC,-5.52,-3.37,-5.604000000000001,-3.858000000000001,1.0,CF,16.0,_,100.0,2.14,2.22,0.99,30.5,"[0, 0, 0, 0, 132, 7, 100, 9, 1, 255, 79, 219, 221, 219, 79, 255]","[[0, 0, 0, 0, 132, 7, 100, 9, 1, 255, 79, 219, 221, 219, 79, 255], [0, 0, 0, 0, 9, 132, 7, 100, 1, 255, 79, 219, 221, 219, 79, 255], [0, 0, 0, 0, 100, 9, 132, 7, 1, 255, 79, 219, 221, 219, 79, 255], [0, 0, 0, 0, 7, 100, 9, 132, 1, 255, 79, 219, 221, 219, 79, 255]]"
PTBB-m,ITCPTC,-5.48,-3.42,-5.604000000000001,-3.858000000000001,1.0,CF,16.0,_,100.0,7.07,7.06,0.97,48.4,"[0, 0, 0, 0, 133, 7, 100, 9, 1, 255, 79, 219, 221, 219, 79, 255]","[[0, 0, 0, 0, 133, 7, 100, 9, 1, 255, 79, 219, 221, 219, 79, 255], [0, 0, 0, 0, 9, 133, 7, 100, 1, 255, 79, 219, 221, 219, 79, 255], [0, 0, 0, 0, 100, 9, 133, 7, 1, 255, 79, 219, 221, 219, 79, 255], [0, 0, 0, 0, 7, 100, 9, 133, 1, 255, 79, 219, 221, 219, 79, 255]]"
PTBB-p,ITCPTC,-5.41,-3.49,-5.604000000000001,-3.858000000000001,1.0,CF,16.0,_,100.0,7.26,7.27,0.91,50.9,"[0, 0, 0, 0, 134, 7, 100, 9, 1, 255, 79, 219, 221, 219, 79, 255]","[[0, 0, 0, 0, 134, 7, 100, 9, 1, 255, 79, 219, 221, 219, 79, 255], [0, 0, 0, 0, 9, 134, 7, 100, 1, 255, 79, 219, 221, 219, 79, 255], [0, 0, 0, 0, 100, 9, 134, 7, 1, 255, 79, 219, 221, 219, 79, 255], [0, 0, 0, 0, 7, 100, 9, 134, 1, 255, 79, 219, 221, 219, 79, 255]]"
PTB7-Th,Py-1,-5.204782608695651,-3.5391891891891896,-5.79,-3.76,0.667,CF,10.0,_,25.0,5.88,5.82,0.74,65.0,"[0, 0, 0, 0, 0, 0, 49, 101, 1, 217, 7, 219, 356, 219, 7, 217]","[[0, 0, 0, 0, 0, 0, 49, 101, 1, 217, 7, 219, 356, 219, 7, 217], [0, 0, 0, 0, 0, 0, 101, 49, 1, 217, 7, 219, 356, 219, 7, 217]]"
PTB7-Th,Py-2,-5.204782608695651,-3.5391891891891896,-5.83,-3.78,1.0,CF,10.0,_,25.0,3.47,3.41,0.75,47.0,"[0, 0, 0, 0, 0, 0, 49, 101, 1, 217, 7, 219, 356, 219, 7, 217]","[[0, 0, 0, 0, 0, 0, 49, 101, 1, 217, 7, 219, 356, 219, 7, 217], [0, 0, 0, 0, 0, 0, 101, 49, 1, 217, 7, 219, 356, 219, 7, 217]]"
PBB-T,IT-2F,-5.4,-3.3,-5.665,-4.095,0.833,CB,15.4,_,150.0,13.3,13.31,0.91,70.0,"[0, 0, 0, 0, 10, 135, 136, 137, 1, 217, 79, 219, 221, 219, 79, 217]","[[0, 0, 0, 0, 10, 135, 136, 137, 1, 217, 79, 219, 221, 219, 79, 217], [0, 0, 0, 0, 137, 10, 135, 136, 1, 217, 79, 219, 221, 219, 79, 217], [0, 0, 0, 0, 136, 137, 10, 135, 1, 217, 79, 219, 221, 219, 79, 217], [0, 0, 0, 0, 135, 136, 137, 10, 1, 217, 79, 219, 221, 219, 79, 217]]"
P_TBTT-BTT,ICz-Rd2,-5.15,-3.58,-5.59,-3.88,1.0,CF,15.0,_,40.0,7.88,7.88,1.04,54.0,"[9, 56, 7, 7, 216, 9, 1, 240, 56, 221, 357, 221, 357, 221, 56, 240]","[[9, 56, 7, 7, 216, 9, 1, 240, 56, 221, 357, 221, 357, 221, 56, 240], [9, 9, 56, 7, 7, 216, 1, 240, 56, 221, 357, 221, 357, 221, 56, 240], [216, 9, 9, 56, 7, 7, 1, 240, 56, 221, 357, 221, 357, 221, 56, 240], [7, 216, 9, 9, 56, 7, 1, 240, 56, 221, 357, 221, 357, 221, 56, 240], [7, 7, 216, 9, 9, 56, 1, 240, 56, 221, 357, 221, 357, 221, 56, 240], [56, 7, 7, 216, 9, 9, 1, 240, 56, 221, 357, 221, 357, 221, 56, 240]]"
P_TBTT-BTT,ICz-RdCN2,-5.15,-3.58,-5.58,-3.98,1.0,CF,15.0,_,40.0,9.76,9.76,1.01,62.0,"[9, 56, 7, 7, 216, 9, 1, 236, 56, 221, 357, 221, 357, 221, 56, 236]","[[9, 56, 7, 7, 216, 9, 1, 236, 56, 221, 357, 221, 357, 221, 56, 236], [9, 9, 56, 7, 7, 216, 1, 236, 56, 221, 357, 221, 357, 221, 56, 236], [216, 9, 9, 56, 7, 7, 1, 236, 56, 221, 357, 221, 357, 221, 56, 236], [7, 216, 9, 9, 56, 7, 1, 236, 56, 221, 357, 221, 357, 221, 56, 236], [7, 7, 216, 9, 9, 56, 1, 236, 56, 221, 357, 221, 357, 221, 56, 236], [56, 7, 7, 216, 9, 9, 1, 236, 56, 221, 357, 221, 357, 221, 56, 236]]"
PBZ,IT-4F,-5.18,-3.22,-5.66875,-4.060416666666667,1.0,Toluene,20.0,PN,25.0,6.4,6.45,0.6,63.2,"[0, 0, 0, 0, 49, 7, 8, 9, 1, 217, 79, 219, 221, 219, 79, 217]","[[0, 0, 0, 0, 49, 7, 8, 9, 1, 217, 79, 219, 221, 219, 79, 217], [0, 0, 0, 0, 9, 49, 7, 8, 1, 217, 79, 219, 221, 219, 79, 217], [0, 0, 0, 0, 8, 9, 49, 7, 1, 217, 79, 219, 221, 219, 79, 217], [0, 0, 0, 0, 7, 8, 9, 49, 1, 217, 79, 219, 221, 219, 79, 217]]"
PBZ-ClSi,IT-4F,-5.56,-3.5,-5.66875,-4.060416666666667,1.0,Toluene,20.0,PN,25.0,12.8,12.77,0.93,71.5,"[0, 0, 0, 0, 139, 7, 8, 9, 1, 217, 79, 219, 221, 219, 79, 217]","[[0, 0, 0, 0, 139, 7, 8, 9, 1, 217, 79, 219, 221, 219, 79, 217], [0, 0, 0, 0, 9, 139, 7, 8, 1, 217, 79, 219, 221, 219, 79, 217], [0, 0, 0, 0, 8, 9, 139, 7, 1, 217, 79, 219, 221, 219, 79, 217], [0, 0, 0, 0, 7, 8, 9, 139, 1, 217, 79, 219, 221, 219, 79, 217]]"
PT1,ITIC,-5.46,-3.59,-5.574146341463415,-3.915,0.667,CB,20.0,_,25.0,2.13,2.14,0.95,39.0,"[0, 0, 0, 0, 0, 0, 49, 140, 1, 222, 79, 219, 221, 219, 79, 222]","[[0, 0, 0, 0, 0, 0, 49, 140, 1, 222, 79, 219, 221, 219, 79, 222], [0, 0, 0, 0, 0, 0, 140, 49, 1, 222, 79, 219, 221, 219, 79, 222]]"
PBDB-T,HF-TCIC,-5.297714285714285,-3.4170000000000003,-5.43,-3.83,0.833,CF,15.0,CN,120.0,9.86,9.9,0.76,65.0,"[0, 0, 49, 7, 100, 9, 1, 217, 7, 260, 7, 358, 7, 260, 7, 217]","[[0, 0, 49, 7, 100, 9, 1, 217, 7, 260, 7, 358, 7, 260, 7, 217], [0, 0, 9, 49, 7, 100, 1, 217, 7, 260, 7, 358, 7, 260, 7, 217], [0, 0, 100, 9, 49, 7, 1, 217, 7, 260, 7, 358, 7, 260, 7, 217], [0, 0, 7, 100, 9, 49, 1, 217, 7, 260, 7, 358, 7, 260, 7, 217]]"
BO2FEH,m-ITIC-OR-4Cl,-5.59,-3.59,-5.78,-4.05,0.667,CB,15.0,_,150.0,6.4,6.15,0.88,48.5,"[0, 0, 0, 0, 99, 7, 142, 9, 1, 231, 79, 351, 221, 351, 79, 231]","[[0, 0, 0, 0, 99, 7, 142, 9, 1, 231, 79, 351, 221, 351, 79, 231], [0, 0, 0, 0, 9, 99, 7, 142, 1, 231, 79, 351, 221, 351, 79, 231], [0, 0, 0, 0, 142, 9, 99, 7, 1, 231, 79, 351, 221, 351, 79, 231], [0, 0, 0, 0, 7, 142, 9, 99, 1, 231, 79, 351, 221, 351, 79, 231]]"
PTB-EDOT,ITIC-Th,-5.33,-3.63,-5.673333333333334,-3.908888888888889,0.667,MeTHF,16.0,_,100.0,8.59,8.59,0.84,66.5,"[0, 0, 0, 0, 0, 0, 143, 101, 1, 222, 79, 313, 221, 313, 79, 222]","[[0, 0, 0, 0, 0, 0, 143, 101, 1, 222, 79, 313, 221, 313, 79, 222], [0, 0, 0, 0, 0, 0, 101, 143, 1, 222, 79, 313, 221, 313, 79, 222]]"
PTB-EDOTS,ITIC-Th,-5.38,-3.69,-5.673333333333334,-3.908888888888889,0.667,MeTHF,16.0,_,100.0,10.18,10.18,0.88,71.2,"[0, 0, 0, 0, 0, 0, 144, 101, 1, 222, 79, 313, 221, 313, 79, 222]","[[0, 0, 0, 0, 0, 0, 144, 101, 1, 222, 79, 313, 221, 313, 79, 222], [0, 0, 0, 0, 0, 0, 101, 144, 1, 222, 79, 313, 221, 313, 79, 222]]"
POPB,IT-4F,-5.38,-3.57,-5.66875,-4.060416666666667,0.667,CB,20.0,DIO,25.0,6.2,6.19,0.72,51.2,"[0, 0, 0, 0, 145, 7, 100, 9, 1, 217, 79, 219, 221, 219, 79, 217]","[[0, 0, 0, 0, 145, 7, 100, 9, 1, 217, 79, 219, 221, 219, 79, 217], [0, 0, 0, 0, 9, 145, 7, 100, 1, 217, 79, 219, 221, 219, 79, 217], [0, 0, 0, 0, 100, 9, 145, 7, 1, 217, 79, 219, 221, 219, 79, 217], [0, 0, 0, 0, 7, 100, 9, 145, 1, 217, 79, 219, 221, 219, 79, 217]]"
PFOPB,IT-4F,-5.5,-3.64,-5.66875,-4.060416666666667,0.667,CB,20.0,DIO,25.0,11.7,11.71,0.89,64.5,"[0, 0, 0, 0, 146, 7, 100, 9, 1, 217, 79, 219, 221, 219, 79, 217]","[[0, 0, 0, 0, 146, 7, 100, 9, 1, 217, 79, 219, 221, 219, 79, 217], [0, 0, 0, 0, 9, 146, 7, 100, 1, 217, 79, 219, 221, 219, 79, 217], [0, 0, 0, 0, 100, 9, 146, 7, 1, 217, 79, 219, 221, 219, 79, 217], [0, 0, 0, 0, 7, 100, 9, 146, 1, 217, 79, 219, 221, 219, 79, 217]]"
P3HT,BIBT-NI,-5.057777777777777,-2.989444444444445,-5.62,-3.65,0.833,o-DCB,28.0,_,110.0,2.1,2.09,0.77,44.2,"[0, 0, 0, 0, 0, 0, 41, 40, 40, 194, 1, 323, 7, 359, 7, 323]","[[0, 0, 0, 0, 0, 0, 41, 40, 40, 194, 1, 323, 7, 359, 7, 323], [0, 0, 0, 0, 0, 0, 194, 41, 40, 40, 1, 323, 7, 359, 7, 323], [0, 0, 0, 0, 0, 0, 40, 194, 41, 40, 1, 323, 7, 359, 7, 323], [0, 0, 0, 0, 0, 0, 40, 40, 194, 41, 1, 323, 7, 359, 7, 323]]"
PBDS-T,ITIC-F,-5.349999999999999,-3.67,-5.619999999999999,-4.02,1.0,CB,20.0,DIO,25.0,11.19,11.19,0.9,66.7,"[0, 0, 0, 0, 6, 207, 208, 9, 1, 217, 79, 219, 221, 219, 79, 217]","[[0, 0, 0, 0, 6, 207, 208, 9, 1, 217, 79, 219, 221, 219, 79, 217], [0, 0, 0, 0, 9, 6, 207, 208, 1, 217, 79, 219, 221, 219, 79, 217], [0, 0, 0, 0, 208, 9, 6, 207, 1, 217, 79, 219, 221, 219, 79, 217], [0, 0, 0, 0, 207, 208, 9, 6, 1, 217, 79, 219, 221, 219, 79, 217]]"
PBDS-T,ITIC-Th1,-5.349999999999999,-3.67,-5.720000000000001,-4.065,1.0,CB,20.0,DIO,25.0,12.04,12.04,0.88,70.0,"[0, 0, 0, 0, 6, 207, 208, 9, 1, 264, 79, 313, 221, 313, 79, 264]","[[0, 0, 0, 0, 6, 207, 208, 9, 1, 264, 79, 313, 221, 313, 79, 264], [0, 0, 0, 0, 9, 6, 207, 208, 1, 264, 79, 313, 221, 313, 79, 264], [0, 0, 0, 0, 208, 9, 6, 207, 1, 264, 79, 313, 221, 313, 79, 264], [0, 0, 0, 0, 207, 208, 9, 6, 1, 264, 79, 313, 221, 313, 79, 264]]"
J71,ITDM,-5.353333333333333,-3.4318181818181825,-5.58,-3.82,1.0,CF,16.0,_,100.0,12.05,12.05,1.015,70.9,"[0, 0, 0, 0, 6, 7, 8, 9, 1, 340, 79, 219, 221, 219, 79, 340]","[[0, 0, 0, 0, 6, 7, 8, 9, 1, 340, 79, 219, 221, 219, 79, 340], [0, 0, 0, 0, 9, 6, 7, 8, 1, 340, 79, 219, 221, 219, 79, 340], [0, 0, 0, 0, 8, 9, 6, 7, 1, 340, 79, 219, 221, 219, 79, 340], [0, 0, 0, 0, 7, 8, 9, 6, 1, 340, 79, 219, 221, 219, 79, 340]]"
J71,ITCF,-5.353333333333333,-3.4318181818181825,-5.59,-3.95,1.0,CF,16.0,_,100.0,13.25,13.25,0.91,78.8,"[0, 0, 0, 0, 6, 7, 8, 9, 1, 350, 79, 219, 221, 219, 79, 350]","[[0, 0, 0, 0, 6, 7, 8, 9, 1, 350, 79, 219, 221, 219, 79, 350], [0, 0, 0, 0, 9, 6, 7, 8, 1, 350, 79, 219, 221, 219, 79, 350], [0, 0, 0, 0, 8, 9, 6, 7, 1, 350, 79, 219, 221, 219, 79, 350], [0, 0, 0, 0, 7, 8, 9, 6, 1, 350, 79, 219, 221, 219, 79, 350]]"
J71,IT-4F,-5.353333333333333,-3.4318181818181825,-5.66875,-4.060416666666667,1.0,CF,16.0,_,100.0,11.66,11.67,0.803,74.2,"[0, 0, 0, 0, 6, 7, 8, 9, 1, 217, 79, 219, 221, 219, 79, 217]","[[0, 0, 0, 0, 6, 7, 8, 9, 1, 217, 79, 219, 221, 219, 79, 217], [0, 0, 0, 0, 9, 6, 7, 8, 1, 217, 79, 219, 221, 219, 79, 217], [0, 0, 0, 0, 8, 9, 6, 7, 1, 217, 79, 219, 221, 219, 79, 217], [0, 0, 0, 0, 7, 8, 9, 6, 1, 217, 79, 219, 221, 219, 79, 217]]"
2T-TTC-BDTFT,m-ITIC,-5.41,-3.53,-5.526666666666667,-3.8515384615384622,1.0,o-DCB,16.0,_,120.0,11.15,11.15,0.97,69.37,"[0, 0, 0, 0, 99, 7, 154, 9, 1, 222, 79, 228, 221, 228, 79, 222]","[[0, 0, 0, 0, 99, 7, 154, 9, 1, 222, 79, 228, 221, 228, 79, 222], [0, 0, 0, 0, 9, 99, 7, 154, 1, 222, 79, 228, 221, 228, 79, 222], [0, 0, 0, 0, 154, 9, 99, 7, 1, 222, 79, 228, 221, 228, 79, 222], [0, 0, 0, 0, 7, 154, 9, 99, 1, 222, 79, 228, 221, 228, 79, 222]]"
PTB7-Th,ACS8,-5.204782608695651,-3.5391891891891896,-5.54,-4.05,0.5,Toluene,20.0,_,25.0,9.9,9.92,0.75,58.8,"[0, 0, 0, 0, 49, 101, 1, 217, 172, 7, 219, 221, 219, 7, 172, 217]","[[0, 0, 0, 0, 49, 101, 1, 217, 172, 7, 219, 221, 219, 7, 172, 217], [0, 0, 0, 0, 101, 49, 1, 217, 172, 7, 219, 221, 219, 7, 172, 217]]"
PBDB-T,IDNO-IDT,-5.297714285714285,-3.4170000000000003,-5.45,-3.65,1.0,CB,20.0,_,140.0,1.1,0.94,1.03,34.47,"[0, 0, 0, 0, 49, 7, 100, 9, 1, 314, 7, 219, 221, 219, 7, 314]","[[0, 0, 0, 0, 49, 7, 100, 9, 1, 314, 7, 219, 221, 219, 7, 314], [0, 0, 0, 0, 9, 49, 7, 100, 1, 314, 7, 219, 221, 219, 7, 314], [0, 0, 0, 0, 100, 9, 49, 7, 1, 314, 7, 219, 221, 219, 7, 314], [0, 0, 0, 0, 7, 100, 9, 49, 1, 314, 7, 219, 221, 219, 7, 314]]"
PBDT-3T,IT-4F,-5.48,-3.21,-5.66875,-4.060416666666667,0.667,CB,10.0,DIO,25.0,1.0,1.01,0.85,30.43,"[0, 0, 0, 0, 99, 64, 7, 160, 1, 217, 79, 219, 221, 219, 79, 217]","[[0, 0, 0, 0, 99, 64, 7, 160, 1, 217, 79, 219, 221, 219, 79, 217], [0, 0, 0, 0, 160, 99, 64, 7, 1, 217, 79, 219, 221, 219, 79, 217], [0, 0, 0, 0, 7, 160, 99, 64, 1, 217, 79, 219, 221, 219, 79, 217], [0, 0, 0, 0, 64, 7, 160, 99, 1, 217, 79, 219, 221, 219, 79, 217]]"
PTB7-Th,NFDTS,-5.204782608695651,-3.5391891891891896,-5.36,-3.92,0.833,CF,20.0,_,25.0,6.15,6.15,0.67,48.9,"[0, 0, 0, 0, 0, 0, 49, 101, 1, 217, 7, 280, 79, 280, 7, 217]","[[0, 0, 0, 0, 0, 0, 49, 101, 1, 217, 7, 280, 79, 280, 7, 217], [0, 0, 0, 0, 0, 0, 101, 49, 1, 217, 7, 280, 79, 280, 7, 217]]"
PTB7-Th,NFDTSB,-5.204782608695651,-3.5391891891891896,-5.56,-3.85,1.0,CF,20.0,_,25.0,9.6,9.61,0.75,63.6,"[0, 0, 0, 0, 49, 101, 1, 217, 7, 280, 218, 285, 218, 280, 7, 217]","[[0, 0, 0, 0, 49, 101, 1, 217, 7, 280, 218, 285, 218, 280, 7, 217], [0, 0, 0, 0, 101, 49, 1, 217, 7, 280, 218, 285, 218, 280, 7, 217]]"
PBTIBDTT,ITIC-F,-5.47,-3.6,-5.619999999999999,-4.02,1.0,CB,16.0,_,25.0,11.19,11.19,0.921,74.1,"[0, 0, 0, 0, 49, 42, 161, 162, 1, 217, 79, 219, 221, 219, 79, 217]","[[0, 0, 0, 0, 49, 42, 161, 162, 1, 217, 79, 219, 221, 219, 79, 217], [0, 0, 0, 0, 162, 49, 42, 161, 1, 217, 79, 219, 221, 219, 79, 217], [0, 0, 0, 0, 161, 162, 49, 42, 1, 217, 79, 219, 221, 219, 79, 217], [0, 0, 0, 0, 42, 161, 162, 49, 1, 217, 79, 219, 221, 219, 79, 217]]"
PBDB-T,DTNIF,-5.297714285714285,-3.4170000000000003,-5.82,-3.92,1.0,CB,18.0,_,25.0,8.73,8.68,0.9,72.77,"[0, 0, 0, 0, 49, 7, 100, 9, 1, 264, 7, 260, 267, 260, 7, 264]","[[0, 0, 0, 0, 49, 7, 100, 9, 1, 264, 7, 260, 267, 260, 7, 264], [0, 0, 0, 0, 9, 49, 7, 100, 1, 264, 7, 260, 267, 260, 7, 264], [0, 0, 0, 0, 100, 9, 49, 7, 1, 264, 7, 260, 267, 260, 7, 264], [0, 0, 0, 0, 7, 100, 9, 49, 1, 264, 7, 260, 267, 260, 7, 264]]"
PBDB-T,DTNSF,-5.297714285714285,-3.4170000000000003,-5.52,-4.0,1.0,CB,18.0,_,25.0,7.15,7.28,0.92,54.62,"[0, 0, 49, 7, 100, 9, 1, 264, 7, 7, 260, 267, 260, 7, 7, 264]","[[0, 0, 49, 7, 100, 9, 1, 264, 7, 7, 260, 267, 260, 7, 7, 264], [0, 0, 9, 49, 7, 100, 1, 264, 7, 7, 260, 267, 260, 7, 7, 264], [0, 0, 100, 9, 49, 7, 1, 264, 7, 7, 260, 267, 260, 7, 7, 264], [0, 0, 7, 100, 9, 49, 1, 264, 7, 7, 260, 267, 260, 7, 7, 264]]"
PBTIBDTT,Si4TIC-F,-5.47,-3.6,-5.58,-4.21,0.667,CB,12.5,CN,25.0,10.2,10.2,0.78,69.4,"[0, 0, 0, 0, 49, 42, 161, 162, 1, 264, 7, 286, 79, 286, 7, 264]","[[0, 0, 0, 0, 49, 42, 161, 162, 1, 264, 7, 286, 79, 286, 7, 264], [0, 0, 0, 0, 162, 49, 42, 161, 1, 264, 7, 286, 79, 286, 7, 264], [0, 0, 0, 0, 161, 162, 49, 42, 1, 264, 7, 286, 79, 286, 7, 264], [0, 0, 0, 0, 42, 161, 162, 49, 1, 264, 7, 286, 79, 286, 7, 264]]"
PBT1-C-MW,ITCPTC,-5.46,-3.4,-5.604000000000001,-3.858000000000001,1.0,CF,16.0,_,100.0,12.8,12.77,0.94,79.0,"[0, 0, 0, 0, 211, 7, 100, 9, 1, 255, 79, 219, 221, 219, 79, 255]","[[0, 0, 0, 0, 211, 7, 100, 9, 1, 255, 79, 219, 221, 219, 79, 255], [0, 0, 0, 0, 9, 211, 7, 100, 1, 255, 79, 219, 221, 219, 79, 255], [0, 0, 0, 0, 100, 9, 211, 7, 1, 255, 79, 219, 221, 219, 79, 255], [0, 0, 0, 0, 7, 100, 9, 211, 1, 255, 79, 219, 221, 219, 79, 255]]"