Donor,Acceptor,HOMO_D_eV,LUMO_D_eV,HOMO_A_eV,LUMO_A_eV,D_A_ratio_m_m,solvent,total_solids_conc_mg_mL,solvent_additive,annealing_temperature,PCE_percent,calc_PCE_percent,Voc_V,FF_percent,DA_manual_tokenized,DA_manual_tokenized_aug
PTB7-Th,DTCC-IC,-5.204782608695651,-3.5391891891891896,-5.5,-3.87,1.0,CF,13.0,CN,100.0,6.0,6.0,0.95,56.2,"[0, 0, 0, 0, 49, 101, 1, 217, 7, 321, 221, 322, 221, 321, 7, 217]","[[0, 0, 0, 0, 49, 101, 1, 217, 7, 321, 221, 322, 221, 321, 7, 217], [0, 0, 0, 0, 101, 49, 1, 217, 7, 321, 221, 322, 221, 321, 7, 217]]"
P1_BDT-TBT,PY1,-5.1,-3.48,-5.27,-4.0,0.5,CF,18.0,DIO,25.0,4.89,4.89,0.83,56.0,"[0, 0, 0, 0, 39, 7, 56, 9, 1, 325, 40, 40, 369, 40, 40, 325]","[[0, 0, 0, 0, 39, 7, 56, 9, 1, 325, 40, 40, 369, 40, 40, 325], [0, 0, 0, 0, 9, 39, 7, 56, 1, 325, 40, 40, 369, 40, 40, 325], [0, 0, 0, 0, 56, 9, 39, 7, 1, 325, 40, 40, 369, 40, 40, 325], [0, 0, 0, 0, 7, 56, 9, 39, 1, 325, 40, 40, 369, 40, 40, 325]]"
PBDTTT-C-T,DC-IDT2F,-5.128,-3.268,-5.44,-3.88,2.0,o-DCB,20.0,_,25.0,3.08,3.08,0.96,50.8,"[0, 0, 0, 0, 49, 112, 1, 222, 28, 221, 219, 221, 219, 221, 28, 222]","[[0, 0, 0, 0, 49, 112, 1, 222, 28, 221, 219, 221, 219, 221, 28, 222], [0, 0, 0, 0, 112, 49, 1, 222, 28, 221, 219, 221, 219, 221, 28, 222]]"
PTB7-Th,IM-IDT,-5.204782608695651,-3.5391891891891896,-5.44,-4.0,1.0,o-DCB,10.0,DPE,100.0,1.6,1.41,0.58,49.16,"[0, 0, 0, 0, 0, 0, 49, 101, 1, 327, 7, 219, 221, 219, 7, 327]","[[0, 0, 0, 0, 0, 0, 49, 101, 1, 327, 7, 219, 221, 219, 7, 327], [0, 0, 0, 0, 0, 0, 101, 49, 1, 327, 7, 219, 221, 219, 7, 327]]"
PTB7-Th,SiOTIC-4F,-5.204782608695651,-3.5391891891891896,-5.28,-4.11,0.667,CF,20.0,CN,25.0,8.6,8.62,0.65,61.4,"[0, 0, 0, 0, 0, 0, 49, 101, 1, 217, 229, 7, 329, 7, 229, 217]","[[0, 0, 0, 0, 0, 0, 49, 101, 1, 217, 229, 7, 329, 7, 229, 217], [0, 0, 0, 0, 0, 0, 101, 49, 1, 217, 229, 7, 329, 7, 229, 217]]"
P3HT,BTA100,-5.057777777777777,-2.989444444444445,-4.98,-2.81,1.0,CF,15.0,_,100.0,1.04,1.04,1.34,47.0,"[0, 0, 41, 40, 40, 194, 1, 333, 334, 7, 219, 221, 219, 7, 334, 333]","[[0, 0, 41, 40, 40, 194, 1, 333, 334, 7, 219, 221, 219, 7, 334, 333], [0, 0, 194, 41, 40, 40, 1, 333, 334, 7, 219, 221, 219, 7, 334, 333], [0, 0, 40, 194, 41, 40, 1, 333, 334, 7, 219, 221, 219, 7, 334, 333], [0, 0, 40, 40, 194, 41, 1, 333, 334, 7, 219, 221, 219, 7, 334, 333]]"
P3HT,BTA101,-5.057777777777777,-2.989444444444445,-5.05,-2.99,1.0,CF,15.0,_,120.0,3.55,3.55,1.19,56.0,"[0, 0, 41, 40, 40, 194, 1, 240, 334, 7, 219, 221, 219, 7, 334, 240]","[[0, 0, 41, 40, 40, 194, 1, 240, 334, 7, 219, 221, 219, 7, 334, 240], [0, 0, 194, 41, 40, 40, 1, 240, 334, 7, 219, 221, 219, 7, 334, 240], [0, 0, 40, 194, 41, 40, 1, 240, 334, 7, 219, 221, 219, 7, 334, 240], [0, 0, 40, 40, 194, 41, 1, 240, 334, 7, 219, 221, 219, 7, 334, 240]]"
PTB7-Th,6TIC,-5.204782608695651,-3.5391891891891896,-5.33,-3.885,0.667,CB,25.0,DIO,150.0,11.07,11.06,0.831,66.16,"[0, 0, 0, 0, 0, 0, 49, 101, 1, 222, 79, 219, 79, 219, 79, 222]","[[0, 0, 0, 0, 0, 0, 49, 101, 1, 222, 79, 219, 79, 219, 79, 222], [0, 0, 0, 0, 0, 0, 101, 49, 1, 222, 79, 219, 79, 219, 79, 222]]"
PTB7-Th,COi8DFIC,-5.204782608695651,-3.5391891891891896,-5.5,-3.88,1.0,CB,18.0,DIO,25.0,12.16,12.11,0.68,68.2,"[0, 0, 0, 0, 0, 0, 49, 101, 1, 217, 79, 335, 79, 335, 79, 217]","[[0, 0, 0, 0, 0, 0, 49, 101, 1, 217, 79, 335, 79, 335, 79, 217], [0, 0, 0, 0, 0, 0, 101, 49, 1, 217, 79, 335, 79, 335, 79, 217]]"
PTB7-Th,IDT-2BR,-5.204782608695651,-3.5391891891891896,-5.52,-3.69,1.0,o-DCB:CF (4:1),15.0,CN,25.0,7.7,8.32,0.99,60.0,"[0, 0, 0, 0, 49, 101, 1, 240, 56, 7, 219, 221, 219, 7, 56, 240]","[[0, 0, 0, 0, 49, 101, 1, 240, 56, 7, 219, 221, 219, 7, 56, 240], [0, 0, 0, 0, 101, 49, 1, 240, 56, 7, 219, 221, 219, 7, 56, 240]]"
PTB7-Th,IDT-2BR1,-5.204782608695651,-3.5391891891891896,-5.37,-3.67,1.0,o-DCB:CF (4:1),15.0,CN,25.0,8.7,8.66,0.95,60.0,"[0, 0, 0, 0, 49, 101, 1, 240, 56, 7, 234, 221, 234, 7, 56, 240]","[[0, 0, 0, 0, 49, 101, 1, 240, 56, 7, 234, 221, 234, 7, 56, 240], [0, 0, 0, 0, 101, 49, 1, 240, 56, 7, 234, 221, 234, 7, 56, 240]]"
PTB7-Th,ATT-2,-5.204782608695651,-3.5391891891891896,-5.5,-3.9,0.556,CB,22.4,CN,25.0,9.58,9.54,0.73,63.0,"[0, 0, 0, 0, 49, 101, 1, 222, 336, 7, 219, 221, 219, 7, 336, 222]","[[0, 0, 0, 0, 49, 101, 1, 222, 336, 7, 219, 221, 219, 7, 336, 222], [0, 0, 0, 0, 101, 49, 1, 222, 336, 7, 219, 221, 219, 7, 336, 222]]"
PTB7-Th,T1,-5.204782608695651,-3.5391891891891896,-5.42,-3.91,0.556,CB,20.0,_,25.0,9.82,9.8,0.72,65.0,"[0, 0, 0, 0, 49, 101, 1, 222, 337, 7, 219, 221, 219, 7, 337, 222]","[[0, 0, 0, 0, 49, 101, 1, 222, 337, 7, 219, 221, 219, 7, 337, 222], [0, 0, 0, 0, 101, 49, 1, 222, 337, 7, 219, 221, 219, 7, 337, 222]]"
PTB7-Th,T2,-5.204782608695651,-3.5391891891891896,-5.34,-3.96,0.556,CB,20.0,_,25.0,10.1,10.02,0.67,66.0,"[0, 0, 0, 0, 49, 101, 1, 264, 337, 7, 219, 221, 219, 7, 337, 264]","[[0, 0, 0, 0, 49, 101, 1, 264, 337, 7, 219, 221, 219, 7, 337, 264], [0, 0, 0, 0, 101, 49, 1, 264, 337, 7, 219, 221, 219, 7, 337, 264]]"
PTB7-Th,T3,-5.204782608695651,-3.5391891891891896,-5.31,-4.0,0.556,CB,20.0,_,25.0,9.43,9.39,0.61,70.0,"[0, 0, 0, 0, 49, 101, 1, 217, 337, 7, 219, 221, 219, 7, 337, 217]","[[0, 0, 0, 0, 49, 101, 1, 217, 337, 7, 219, 221, 219, 7, 337, 217], [0, 0, 0, 0, 101, 49, 1, 217, 337, 7, 219, 221, 219, 7, 337, 217]]"
PTB7-Th,ATT-1,-5.204782608695651,-3.5391891891891896,-5.5,-3.63,0.667,o-DCB,25.0,DIO,25.0,10.07,10.04,0.87,70.0,"[0, 0, 0, 0, 49, 101, 1, 236, 336, 7, 219, 221, 219, 7, 336, 236]","[[0, 0, 0, 0, 49, 101, 1, 236, 336, 7, 219, 221, 219, 7, 336, 236], [0, 0, 0, 0, 101, 49, 1, 236, 336, 7, 219, 221, 219, 7, 336, 236]]"
PDBT-T1,IC-C6IDT-IC,-5.36,-3.43,-5.69,-3.91,1.0,CF,12.0,_,25.0,8.71,8.71,0.89,65.0,"[0, 0, 0, 0, 149, 7, 100, 9, 1, 222, 7, 234, 221, 234, 7, 222]","[[0, 0, 0, 0, 149, 7, 100, 9, 1, 222, 7, 234, 221, 234, 7, 222], [0, 0, 0, 0, 9, 149, 7, 100, 1, 222, 7, 234, 221, 234, 7, 222], [0, 0, 0, 0, 100, 9, 149, 7, 1, 222, 7, 234, 221, 234, 7, 222], [0, 0, 0, 0, 7, 100, 9, 149, 1, 222, 7, 234, 221, 234, 7, 222]]"
PBDTT-6ttTPD,ITIC,-5.36,-3.51,-5.574146341463415,-3.915,1.0,CF,12.0,DIO,25.0,9.98,9.98,0.942,67.8,"[0, 0, 0, 0, 195, 117, 196, 119, 1, 222, 79, 219, 221, 219, 79, 222]","[[0, 0, 0, 0, 195, 117, 196, 119, 1, 222, 79, 219, 221, 219, 79, 222], [0, 0, 0, 0, 119, 195, 117, 196, 1, 222, 79, 219, 221, 219, 79, 222], [0, 0, 0, 0, 196, 119, 195, 117, 1, 222, 79, 219, 221, 219, 79, 222], [0, 0, 0, 0, 117, 196, 119, 195, 1, 222, 79, 219, 221, 219, 79, 222]]"
PMOT16,ITIC,-5.52,-3.66,-5.574146341463415,-3.915,1.0,CF,12.0,DIO,25.0,7.63,7.64,1.001,58.7,"[0, 0, 0, 0, 116, 117, 118, 119, 1, 222, 79, 219, 221, 219, 79, 222]","[[0, 0, 0, 0, 116, 117, 118, 119, 1, 222, 79, 219, 221, 219, 79, 222], [0, 0, 0, 0, 119, 116, 117, 118, 1, 222, 79, 219, 221, 219, 79, 222], [0, 0, 0, 0, 118, 119, 116, 117, 1, 222, 79, 219, 221, 219, 79, 222], [0, 0, 0, 0, 117, 118, 119, 116, 1, 222, 79, 219, 221, 219, 79, 222]]"
PBDTT-6ttTPD,IDIC,-5.36,-3.51,-5.706,-4.002666666666667,1.0,CF,12.0,DIO,25.0,8.58,8.58,0.822,65.5,"[0, 0, 0, 0, 195, 117, 196, 119, 1, 222, 7, 234, 221, 234, 7, 222]","[[0, 0, 0, 0, 195, 117, 196, 119, 1, 222, 7, 234, 221, 234, 7, 222], [0, 0, 0, 0, 119, 195, 117, 196, 1, 222, 7, 234, 221, 234, 7, 222], [0, 0, 0, 0, 196, 119, 195, 117, 1, 222, 7, 234, 221, 234, 7, 222], [0, 0, 0, 0, 117, 196, 119, 195, 1, 222, 7, 234, 221, 234, 7, 222]]"
PTZP,IDIC,-5.41,-3.4,-5.706,-4.002666666666667,0.667,CB,18.0,DIO,25.0,11.8,11.81,0.9,73.3,"[0, 0, 0, 0, 108, 64, 120, 65, 1, 222, 7, 234, 221, 234, 7, 222]","[[0, 0, 0, 0, 108, 64, 120, 65, 1, 222, 7, 234, 221, 234, 7, 222], [0, 0, 0, 0, 65, 108, 64, 120, 1, 222, 7, 234, 221, 234, 7, 222], [0, 0, 0, 0, 120, 65, 108, 64, 1, 222, 7, 234, 221, 234, 7, 222], [0, 0, 0, 0, 64, 120, 65, 108, 1, 222, 7, 234, 221, 234, 7, 222]]"
PffBT2T-TT,O-IDTBR,-5.42,-3.52,-5.535,-3.74,0.667,"1,2,4-trimethylbenzene",17.5,_,90.0,10.4,10.36,1.08,67.0,"[0, 0, 81, 121, 22, 122, 1, 240, 56, 7, 225, 221, 225, 7, 56, 240]","[[0, 0, 81, 121, 22, 122, 1, 240, 56, 7, 225, 221, 225, 7, 56, 240], [0, 0, 122, 81, 121, 22, 1, 240, 56, 7, 225, 221, 225, 7, 56, 240], [0, 0, 22, 122, 81, 121, 1, 240, 56, 7, 225, 221, 225, 7, 56, 240], [0, 0, 121, 22, 122, 81, 1, 240, 56, 7, 225, 221, 225, 7, 56, 240]]"
PTB7-Th,IDT-BT-R,-5.204782608695651,-3.5391891891891896,-5.3,-3.56,0.667,DCB,25.0,_,150.0,8.2,8.2,1.02,59.1,"[0, 0, 0, 0, 49, 101, 1, 240, 56, 7, 219, 221, 219, 7, 56, 240]","[[0, 0, 0, 0, 49, 101, 1, 240, 56, 7, 219, 221, 219, 7, 56, 240], [0, 0, 0, 0, 101, 49, 1, 240, 56, 7, 219, 221, 219, 7, 56, 240]]"
P3HT,BTA1,-5.057777777777777,-2.989444444444445,-5.510000000000001,-3.5499999999999994,1.667,CF,15.0,CN,100.0,5.24,5.24,1.02,70.0,"[0, 0, 41, 40, 40, 194, 1, 240, 18, 7, 219, 221, 219, 7, 18, 240]","[[0, 0, 41, 40, 40, 194, 1, 240, 18, 7, 219, 221, 219, 7, 18, 240], [0, 0, 194, 41, 40, 40, 1, 240, 18, 7, 219, 221, 219, 7, 18, 240], [0, 0, 40, 194, 41, 40, 1, 240, 18, 7, 219, 221, 219, 7, 18, 240], [0, 0, 40, 40, 194, 41, 1, 240, 18, 7, 219, 221, 219, 7, 18, 240]]"
P3HT,BTA2,-5.057777777777777,-2.989444444444445,-5.43,-3.3800000000000003,0.6,CF,15.0,DIO,100.0,4.5,4.5,1.22,60.0,"[0, 0, 41, 40, 40, 194, 1, 333, 18, 7, 219, 221, 219, 7, 18, 333]","[[0, 0, 41, 40, 40, 194, 1, 333, 18, 7, 219, 221, 219, 7, 18, 333], [0, 0, 194, 41, 40, 40, 1, 333, 18, 7, 219, 221, 219, 7, 18, 333], [0, 0, 40, 194, 41, 40, 1, 333, 18, 7, 219, 221, 219, 7, 18, 333], [0, 0, 40, 40, 194, 41, 1, 333, 18, 7, 219, 221, 219, 7, 18, 333]]"
J71,ITIC,-5.353333333333333,-3.4318181818181825,-5.574146341463415,-3.915,1.0,CF,12.0,_,150.0,11.41,11.36,0.94,69.77,"[0, 0, 0, 0, 6, 7, 8, 9, 1, 222, 79, 219, 221, 219, 79, 222]","[[0, 0, 0, 0, 6, 7, 8, 9, 1, 222, 79, 219, 221, 219, 79, 222], [0, 0, 0, 0, 9, 6, 7, 8, 1, 222, 79, 219, 221, 219, 79, 222], [0, 0, 0, 0, 8, 9, 6, 7, 1, 222, 79, 219, 221, 219, 79, 222], [0, 0, 0, 0, 7, 8, 9, 6, 1, 222, 79, 219, 221, 219, 79, 222]]"
P3HT,IDT-2BR,-5.057777777777777,-2.989444444444445,-5.52,-3.69,1.667,o-DCB,25.0,CN,25.0,5.12,5.1,0.84,68.1,"[0, 0, 41, 40, 40, 194, 1, 240, 56, 7, 219, 221, 219, 7, 56, 240]","[[0, 0, 41, 40, 40, 194, 1, 240, 56, 7, 219, 221, 219, 7, 56, 240], [0, 0, 194, 41, 40, 40, 1, 240, 56, 7, 219, 221, 219, 7, 56, 240], [0, 0, 40, 194, 41, 40, 1, 240, 56, 7, 219, 221, 219, 7, 56, 240], [0, 0, 40, 40, 194, 41, 1, 240, 56, 7, 219, 221, 219, 7, 56, 240]]"
PBDTTT-EFT,IEICO-4F,-5.24,-3.66,-5.309971428571429,-3.851028571428572,0.667,CB,25.0,DIO,100.0,10.0,10.01,0.739,59.4,"[0, 0, 0, 0, 49, 101, 1, 217, 229, 7, 219, 221, 219, 7, 229, 217]","[[0, 0, 0, 0, 49, 101, 1, 217, 229, 7, 219, 221, 219, 7, 229, 217], [0, 0, 0, 0, 101, 49, 1, 217, 229, 7, 219, 221, 219, 7, 229, 217]]"
J52,IEICO-4F,-5.218571428571429,-3.341428571428572,-5.309971428571429,-3.851028571428572,0.667,CB,25.0,DIO,100.0,9.4,9.4,0.734,58.5,"[0, 0, 10, 7, 8, 9, 1, 217, 229, 7, 219, 221, 219, 7, 229, 217]","[[0, 0, 10, 7, 8, 9, 1, 217, 229, 7, 219, 221, 219, 7, 229, 217], [0, 0, 9, 10, 7, 8, 1, 217, 229, 7, 219, 221, 219, 7, 229, 217], [0, 0, 8, 9, 10, 7, 1, 217, 229, 7, 219, 221, 219, 7, 229, 217], [0, 0, 7, 8, 9, 10, 1, 217, 229, 7, 219, 221, 219, 7, 229, 217]]"
PffT2-FTAZ-2DT,IEIC,-5.28,-3.37,-5.455,-3.8625,1.0,CB,6.0,_,90.0,7.2,7.18,0.998,59.0,"[0, 113, 123, 124, 125, 126, 1, 222, 64, 7, 219, 221, 219, 7, 64, 222]","[[0, 113, 123, 124, 125, 126, 1, 222, 64, 7, 219, 221, 219, 7, 64, 222], [0, 126, 113, 123, 124, 125, 1, 222, 64, 7, 219, 221, 219, 7, 64, 222], [0, 125, 126, 113, 123, 124, 1, 222, 64, 7, 219, 221, 219, 7, 64, 222], [0, 124, 125, 126, 113, 123, 1, 222, 64, 7, 219, 221, 219, 7, 64, 222], [0, 123, 124, 125, 126, 113, 1, 222, 64, 7, 219, 221, 219, 7, 64, 222]]"
PBDB-T,IT-M,-5.297714285714285,-3.4170000000000003,-5.513571428571429,-3.808,1.0,CB,20.0,DIO,160.0,12.05,12.05,0.94,73.5,"[0, 0, 0, 0, 49, 7, 100, 9, 1, 230, 79, 219, 221, 219, 79, 230]","[[0, 0, 0, 0, 49, 7, 100, 9, 1, 230, 79, 219, 221, 219, 79, 230], [0, 0, 0, 0, 9, 49, 7, 100, 1, 230, 79, 219, 221, 219, 79, 230], [0, 0, 0, 0, 100, 9, 49, 7, 1, 230, 79, 219, 221, 219, 79, 230], [0, 0, 0, 0, 7, 100, 9, 49, 1, 230, 79, 219, 221, 219, 79, 230]]"
PBDB-T,IT-DM,-5.297714285714285,-3.4170000000000003,-5.515,-3.855,1.0,CB,20.0,DIO,160.0,11.29,11.29,0.97,70.6,"[0, 0, 0, 0, 49, 7, 100, 9, 1, 340, 79, 219, 221, 219, 79, 340]","[[0, 0, 0, 0, 49, 7, 100, 9, 1, 340, 79, 219, 221, 219, 79, 340], [0, 0, 0, 0, 9, 49, 7, 100, 1, 340, 79, 219, 221, 219, 79, 340], [0, 0, 0, 0, 100, 9, 49, 7, 1, 340, 79, 219, 221, 219, 79, 340], [0, 0, 0, 0, 7, 100, 9, 49, 1, 340, 79, 219, 221, 219, 79, 340]]"
PBDB-ST,ITIC-SC6,-5.37,-3.59,-5.68,-3.91,1.0,DCB,8.0,CBA,110.0,7.27,7.24,0.9,58.0,"[0, 0, 0, 0, 14, 7, 100, 9, 1, 222, 79, 341, 221, 341, 79, 222]","[[0, 0, 0, 0, 14, 7, 100, 9, 1, 222, 79, 341, 221, 341, 79, 222], [0, 0, 0, 0, 9, 14, 7, 100, 1, 222, 79, 341, 221, 341, 79, 222], [0, 0, 0, 0, 100, 9, 14, 7, 1, 222, 79, 341, 221, 341, 79, 222], [0, 0, 0, 0, 7, 100, 9, 14, 1, 222, 79, 341, 221, 341, 79, 222]]"
PBDB-ST,ITIC-SC8,-5.37,-3.59,-5.7,-3.9,1.0,DCB,8.0,CBA,110.0,7.79,7.79,0.9,60.0,"[0, 0, 0, 0, 14, 7, 100, 9, 1, 222, 79, 342, 221, 342, 79, 222]","[[0, 0, 0, 0, 14, 7, 100, 9, 1, 222, 79, 342, 221, 342, 79, 222], [0, 0, 0, 0, 9, 14, 7, 100, 1, 222, 79, 342, 221, 342, 79, 222], [0, 0, 0, 0, 100, 9, 14, 7, 1, 222, 79, 342, 221, 342, 79, 222], [0, 0, 0, 0, 7, 100, 9, 14, 1, 222, 79, 342, 221, 342, 79, 222]]"
PBDB-ST,ITIC-SC2C6,-5.37,-3.59,-5.74,-3.86,1.0,DCB,8.0,CBA,110.0,9.16,9.02,0.92,64.0,"[0, 0, 0, 0, 14, 7, 100, 9, 1, 222, 79, 343, 221, 343, 79, 222]","[[0, 0, 0, 0, 14, 7, 100, 9, 1, 222, 79, 343, 221, 343, 79, 222], [0, 0, 0, 0, 9, 14, 7, 100, 1, 222, 79, 343, 221, 343, 79, 222], [0, 0, 0, 0, 100, 9, 14, 7, 1, 222, 79, 343, 221, 343, 79, 222], [0, 0, 0, 0, 7, 100, 9, 14, 1, 222, 79, 343, 221, 343, 79, 222]]"
PDBT-T1,ITIC-Th,-5.36,-3.43,-5.673333333333334,-3.908888888888889,1.0,CF,12.0,CN,25.0,9.6,9.59,0.88,67.1,"[0, 0, 0, 0, 149, 7, 100, 9, 1, 222, 79, 313, 221, 313, 79, 222]","[[0, 0, 0, 0, 149, 7, 100, 9, 1, 222, 79, 313, 221, 313, 79, 222], [0, 0, 0, 0, 9, 149, 7, 100, 1, 222, 79, 313, 221, 313, 79, 222], [0, 0, 0, 0, 100, 9, 149, 7, 1, 222, 79, 313, 221, 313, 79, 222], [0, 0, 0, 0, 7, 100, 9, 149, 1, 222, 79, 313, 221, 313, 79, 222]]"
P2F-EH,ITIC,-5.36,-3.04,-5.574146341463415,-3.915,1.0,CF,11.0,_,100.0,6.13,6.15,0.983,50.48,"[0, 0, 0, 0, 96, 7, 127, 9, 1, 222, 79, 219, 221, 219, 79, 222]","[[0, 0, 0, 0, 96, 7, 127, 9, 1, 222, 79, 219, 221, 219, 79, 222], [0, 0, 0, 0, 9, 96, 7, 127, 1, 222, 79, 219, 221, 219, 79, 222], [0, 0, 0, 0, 127, 9, 96, 7, 1, 222, 79, 219, 221, 219, 79, 222], [0, 0, 0, 0, 7, 127, 9, 96, 1, 222, 79, 219, 221, 219, 79, 222]]"
P2F-EO,ITIC,-5.41,-3.08,-5.574146341463415,-3.915,1.0,CF,11.0,_,100.0,6.73,6.73,1.013,52.53,"[0, 0, 0, 0, 96, 7, 129, 9, 1, 222, 79, 219, 221, 219, 79, 222]","[[0, 0, 0, 0, 96, 7, 129, 9, 1, 222, 79, 219, 221, 219, 79, 222], [0, 0, 0, 0, 9, 96, 7, 129, 1, 222, 79, 219, 221, 219, 79, 222], [0, 0, 0, 0, 129, 9, 96, 7, 1, 222, 79, 219, 221, 219, 79, 222], [0, 0, 0, 0, 7, 129, 9, 96, 1, 222, 79, 219, 221, 219, 79, 222]]"
PBDB-T,IT-M,-5.297714285714285,-3.4170000000000003,-5.513571428571429,-3.808,1.0,CB,20.0,DIO,100.0,12.1,12.1,0.953,73.2,"[0, 0, 0, 0, 49, 7, 100, 9, 1, 230, 79, 219, 221, 219, 79, 230]","[[0, 0, 0, 0, 49, 7, 100, 9, 1, 230, 79, 219, 221, 219, 79, 230], [0, 0, 0, 0, 9, 49, 7, 100, 1, 230, 79, 219, 221, 219, 79, 230], [0, 0, 0, 0, 100, 9, 49, 7, 1, 230, 79, 219, 221, 219, 79, 230], [0, 0, 0, 0, 7, 100, 9, 49, 1, 230, 79, 219, 221, 219, 79, 230]]"
PBDB-T,ITIC,-5.297714285714285,-3.4170000000000003,-5.574146341463415,-3.915,1.0,CB,20.0,DIO,160.0,10.02,10.02,0.86,64.29,"[0, 0, 0, 0, 49, 7, 100, 9, 1, 222, 79, 219, 221, 219, 79, 222]","[[0, 0, 0, 0, 49, 7, 100, 9, 1, 222, 79, 219, 221, 219, 79, 222], [0, 0, 0, 0, 9, 49, 7, 100, 1, 222, 79, 219, 221, 219, 79, 222], [0, 0, 0, 0, 100, 9, 49, 7, 1, 222, 79, 219, 221, 219, 79, 222], [0, 0, 0, 0, 7, 100, 9, 49, 1, 222, 79, 219, 221, 219, 79, 222]]"
FTAZ,ITIC1,-5.43,-3.3200000000000003,-5.48,-3.85,0.769,CF,11.5,_,25.0,8.54,8.54,0.921,56.4,"[0, 0, 60, 7, 20, 9, 1, 222, 7, 219, 218, 221, 218, 219, 7, 222]","[[0, 0, 60, 7, 20, 9, 1, 222, 7, 219, 218, 221, 218, 219, 7, 222], [0, 0, 9, 60, 7, 20, 1, 222, 7, 219, 218, 221, 218, 219, 7, 222], [0, 0, 20, 9, 60, 7, 1, 222, 7, 219, 218, 221, 218, 219, 7, 222], [0, 0, 7, 20, 9, 60, 1, 222, 7, 219, 218, 221, 218, 219, 7, 222]]"
FTAZ,ITIC2,-5.43,-3.3200000000000003,-5.43,-3.8,0.769,CF,11.5,_,110.0,11.0,11.0,0.925,63.0,"[0, 0, 60, 7, 20, 9, 1, 222, 7, 219, 218, 345, 218, 219, 7, 222]","[[0, 0, 60, 7, 20, 9, 1, 222, 7, 219, 218, 345, 218, 219, 7, 222], [0, 0, 9, 60, 7, 20, 1, 222, 7, 219, 218, 345, 218, 219, 7, 222], [0, 0, 20, 9, 60, 7, 1, 222, 7, 219, 218, 345, 218, 219, 7, 222], [0, 0, 7, 20, 9, 60, 1, 222, 7, 219, 218, 345, 218, 219, 7, 222]]"
PTB7-Th,BT-IC,-5.204782608695651,-3.5391891891891896,-5.3775,-3.8575,0.667,CB:CF (9:1),25.0,_,150.0,8.3,8.45,0.81,59.6,"[0, 0, 0, 0, 49, 101, 1, 222, 7, 219, 218, 235, 218, 219, 7, 222]","[[0, 0, 0, 0, 49, 101, 1, 222, 7, 219, 218, 235, 218, 219, 7, 222], [0, 0, 0, 0, 101, 49, 1, 222, 7, 219, 218, 235, 218, 219, 7, 222]]"
PTB7-Th,BT-CIC,-5.204782608695651,-3.5391891891891896,-5.32,-3.85,0.667,CB:CF (9:1),25.0,_,150.0,11.2,11.18,0.7,71.0,"[0, 0, 0, 0, 49, 101, 1, 231, 7, 219, 218, 235, 218, 219, 7, 346]","[[0, 0, 0, 0, 49, 101, 1, 231, 7, 219, 218, 235, 218, 219, 7, 346], [0, 0, 0, 0, 101, 49, 1, 231, 7, 219, 218, 235, 218, 219, 7, 346]]"
FTAZ,IDIC1,-5.43,-3.3200000000000003,-5.51,-3.81,0.667,CF,12.5,_,25.0,7.13,7.13,0.896,58.5,"[0, 0, 0, 0, 60, 7, 20, 9, 1, 222, 7, 219, 221, 219, 7, 222]","[[0, 0, 0, 0, 60, 7, 20, 9, 1, 222, 7, 219, 221, 219, 7, 222], [0, 0, 0, 0, 9, 60, 7, 20, 1, 222, 7, 219, 221, 219, 7, 222], [0, 0, 0, 0, 20, 9, 60, 7, 1, 222, 7, 219, 221, 219, 7, 222], [0, 0, 0, 0, 7, 20, 9, 60, 1, 222, 7, 219, 221, 219, 7, 222]]"
FTAZ,IHIC1,-5.43,-3.3200000000000003,-5.47,-3.75,0.667,CF,12.5,_,25.0,9.21,9.22,0.95,67.9,"[0, 0, 0, 0, 60, 7, 20, 9, 1, 222, 7, 219, 267, 219, 7, 222]","[[0, 0, 0, 0, 60, 7, 20, 9, 1, 222, 7, 219, 267, 219, 7, 222], [0, 0, 0, 0, 9, 60, 7, 20, 1, 222, 7, 219, 267, 219, 7, 222], [0, 0, 0, 0, 20, 9, 60, 7, 1, 222, 7, 219, 267, 219, 7, 222], [0, 0, 0, 0, 7, 20, 9, 60, 1, 222, 7, 219, 267, 219, 7, 222]]"
PBDB-T,NTIC-Me,-5.297714285714285,-3.4170000000000003,-5.53,-3.73,1.25,CF,9.0,_,25.0,8.3,8.88,0.963,66.2,"[0, 0, 0, 0, 49, 7, 100, 9, 1, 230, 7, 219, 267, 219, 7, 230]","[[0, 0, 0, 0, 49, 7, 100, 9, 1, 230, 7, 219, 267, 219, 7, 230], [0, 0, 0, 0, 9, 49, 7, 100, 1, 230, 7, 219, 267, 219, 7, 230], [0, 0, 0, 0, 100, 9, 49, 7, 1, 230, 7, 219, 267, 219, 7, 230], [0, 0, 0, 0, 7, 100, 9, 49, 1, 230, 7, 219, 267, 219, 7, 230]]"
PBDB-T,NTIC-OMe,-5.297714285714285,-3.4170000000000003,-5.53,-3.7,1.25,CF,9.0,_,25.0,8.61,8.61,0.965,66.0,"[0, 0, 0, 0, 49, 7, 100, 9, 1, 281, 7, 219, 267, 219, 7, 281]","[[0, 0, 0, 0, 49, 7, 100, 9, 1, 281, 7, 219, 267, 219, 7, 281], [0, 0, 0, 0, 9, 49, 7, 100, 1, 281, 7, 219, 267, 219, 7, 281], [0, 0, 0, 0, 100, 9, 49, 7, 1, 281, 7, 219, 267, 219, 7, 281], [0, 0, 0, 0, 7, 100, 9, 49, 1, 281, 7, 219, 267, 219, 7, 281]]"
PBDB-T,NTIC-F,-5.297714285714285,-3.4170000000000003,-5.52,-3.77,1.25,CF,9.0,_,25.0,8.1,8.1,0.812,66.3,"[0, 0, 0, 0, 49, 7, 100, 9, 1, 264, 7, 219, 267, 219, 7, 264]","[[0, 0, 0, 0, 49, 7, 100, 9, 1, 264, 7, 219, 267, 219, 7, 264], [0, 0, 0, 0, 9, 49, 7, 100, 1, 264, 7, 219, 267, 219, 7, 264], [0, 0, 0, 0, 100, 9, 49, 7, 1, 264, 7, 219, 267, 219, 7, 264], [0, 0, 0, 0, 7, 100, 9, 49, 1, 264, 7, 219, 267, 219, 7, 264]]"
PffBT4T-2OD,FBR,-5.32,-3.695,-5.786666666666666,-3.673333333333333,0.714,o-DCB:CB (1:1),14.0,_,25.0,7.04,7.0,1.11,50.0,"[0, 0, 0, 69, 22, 95, 7, 9, 1, 240, 56, 221, 225, 221, 56, 240]","[[0, 0, 0, 69, 22, 95, 7, 9, 1, 240, 56, 221, 225, 221, 56, 240], [0, 0, 0, 9, 69, 22, 95, 7, 1, 240, 56, 221, 225, 221, 56, 240], [0, 0, 0, 7, 9, 69, 22, 95, 1, 240, 56, 221, 225, 221, 56, 240], [0, 0, 0, 95, 7, 9, 69, 22, 1, 240, 56, 221, 225, 221, 56, 240], [0, 0, 0, 22, 95, 7, 9, 69, 1, 240, 56, 221, 225, 221, 56, 240]]"