Donor,Acceptor,HOMO_D_eV,LUMO_D_eV,HOMO_A_eV,LUMO_A_eV,D_A_ratio_m_m,solvent,total_solids_conc_mg_mL,solvent_additive,annealing_temperature,PCE_percent,calc_PCE_percent,Voc_V,FF_percent,DA_manual_tokenized,DA_manual_tokenized_aug
PffQx-T,ITIC,-5.36,-3.56,-5.574146341463415,-3.915,0.667,CF,20.0,_,170.0,8.47,8.47,0.87,59.6,"[0, 0, 0, 0, 49, 7, 190, 9, 1, 222, 79, 219, 221, 219, 79, 222]","[[0, 0, 0, 0, 49, 7, 190, 9, 1, 222, 79, 219, 221, 219, 79, 222], [0, 0, 0, 0, 9, 49, 7, 190, 1, 222, 79, 219, 221, 219, 79, 222], [0, 0, 0, 0, 190, 9, 49, 7, 1, 222, 79, 219, 221, 219, 79, 222], [0, 0, 0, 0, 7, 190, 9, 49, 1, 222, 79, 219, 221, 219, 79, 222]]"
PffQx-PS,ITIC,-5.4,-3.55,-5.574146341463415,-3.915,1.0,CF,20.0,DIO,90.0,9.12,9.13,0.97,62.9,"[0, 0, 0, 0, 134, 7, 190, 9, 1, 222, 79, 219, 221, 219, 79, 222]","[[0, 0, 0, 0, 134, 7, 190, 9, 1, 222, 79, 219, 221, 219, 79, 222], [0, 0, 0, 0, 9, 134, 7, 190, 1, 222, 79, 219, 221, 219, 79, 222], [0, 0, 0, 0, 190, 9, 134, 7, 1, 222, 79, 219, 221, 219, 79, 222], [0, 0, 0, 0, 7, 190, 9, 134, 1, 222, 79, 219, 221, 219, 79, 222]]"
PBDB-T,ITIC,-5.297714285714285,-3.4170000000000003,-5.574146341463415,-3.915,1.0,CB,20.0,_,160.0,8.6,8.57,0.831,71.1,"[0, 0, 0, 0, 49, 7, 100, 9, 1, 222, 79, 219, 221, 219, 79, 222]","[[0, 0, 0, 0, 49, 7, 100, 9, 1, 222, 79, 219, 221, 219, 79, 222], [0, 0, 0, 0, 9, 49, 7, 100, 1, 222, 79, 219, 221, 219, 79, 222], [0, 0, 0, 0, 100, 9, 49, 7, 1, 222, 79, 219, 221, 219, 79, 222], [0, 0, 0, 0, 7, 100, 9, 49, 1, 222, 79, 219, 221, 219, 79, 222]]"
J101,ZITI,-5.3,-3.5,-5.550000000000001,-3.78,1.0,CF,16.0,_,120.0,14.43,14.43,0.937,72.48,"[0, 0, 214, 7, 215, 9, 1, 264, 7, 348, 221, 349, 221, 348, 7, 264]","[[0, 0, 214, 7, 215, 9, 1, 264, 7, 348, 221, 349, 221, 348, 7, 264], [0, 0, 9, 214, 7, 215, 1, 264, 7, 348, 221, 349, 221, 348, 7, 264], [0, 0, 215, 9, 214, 7, 1, 264, 7, 348, 221, 349, 221, 348, 7, 264], [0, 0, 7, 215, 9, 214, 1, 264, 7, 348, 221, 349, 221, 348, 7, 264]]"
J71,ZITI,-5.353333333333333,-3.4318181818181825,-5.550000000000001,-3.78,1.0,CF,16.0,_,25.0,12.82,12.82,0.912,69.49,"[0, 0, 6, 7, 8, 9, 1, 264, 7, 348, 221, 349, 221, 348, 7, 264]","[[0, 0, 6, 7, 8, 9, 1, 264, 7, 348, 221, 349, 221, 348, 7, 264], [0, 0, 9, 6, 7, 8, 1, 264, 7, 348, 221, 349, 221, 348, 7, 264], [0, 0, 8, 9, 6, 7, 1, 264, 7, 348, 221, 349, 221, 348, 7, 264], [0, 0, 7, 8, 9, 6, 1, 264, 7, 348, 221, 349, 221, 348, 7, 264]]"
PTB7-Th,DICTF-C10,-5.204782608695651,-3.5391891891891896,-5.67,-3.89,0.667,o-DCB,25.0,_,25.0,6.93,8.33,0.865,50.0,"[0, 0, 0, 0, 0, 0, 0, 0, 49, 101, 1, 222, 7, 378, 7, 222]","[[0, 0, 0, 0, 0, 0, 0, 0, 49, 101, 1, 222, 7, 378, 7, 222], [0, 0, 0, 0, 0, 0, 0, 0, 101, 49, 1, 222, 7, 378, 7, 222]]"