Donor,Acceptor,HOMO_D_eV,LUMO_D_eV,HOMO_A_eV,LUMO_A_eV,D_A_ratio_m_m,solvent,total_solids_conc_mg_mL,solvent_additive,annealing_temperature,PCE_percent,calc_PCE_percent,Voc_V,FF_percent,DA_manual_tokenized,DA_manual_tokenized_aug
PBDB-T,ITIC-Cl4,-5.297714285714285,-3.4170000000000003,-5.5,-3.9,1.0,o-DCB,15.0,CN,25.0,9.6,9.55,0.74,60.0,"[0, 0, 0, 0, 49, 7, 100, 9, 1, 231, 79, 219, 221, 219, 79, 231]","[[0, 0, 0, 0, 49, 7, 100, 9, 1, 231, 79, 219, 221, 219, 79, 231], [0, 0, 0, 0, 9, 49, 7, 100, 1, 231, 79, 219, 221, 219, 79, 231], [0, 0, 0, 0, 100, 9, 49, 7, 1, 231, 79, 219, 221, 219, 79, 231], [0, 0, 0, 0, 7, 100, 9, 49, 1, 231, 79, 219, 221, 219, 79, 231]]"
PBDTS-TzBI,ITIC,-5.39,-3.52,-5.574146341463415,-3.915,1.0,CB,20.0,_,130.0,9.04,8.88,0.94,56.2,"[0, 0, 0, 0, 14, 7, 212, 9, 1, 222, 79, 219, 221, 219, 79, 222]","[[0, 0, 0, 0, 14, 7, 212, 9, 1, 222, 79, 219, 221, 219, 79, 222], [0, 0, 0, 0, 9, 14, 7, 212, 1, 222, 79, 219, 221, 219, 79, 222], [0, 0, 0, 0, 212, 9, 14, 7, 1, 222, 79, 219, 221, 219, 79, 222], [0, 0, 0, 0, 7, 212, 9, 14, 1, 222, 79, 219, 221, 219, 79, 222]]"
PBDTS-TzBI,ITIC-Th,-5.39,-3.52,-5.673333333333334,-3.908888888888889,1.0,CB,20.0,_,130.0,9.67,9.54,0.91,60.44,"[0, 0, 0, 0, 14, 7, 212, 9, 1, 222, 79, 313, 221, 313, 79, 222]","[[0, 0, 0, 0, 14, 7, 212, 9, 1, 222, 79, 313, 221, 313, 79, 222], [0, 0, 0, 0, 9, 14, 7, 212, 1, 222, 79, 313, 221, 313, 79, 222], [0, 0, 0, 0, 212, 9, 14, 7, 1, 222, 79, 313, 221, 313, 79, 222], [0, 0, 0, 0, 7, 212, 9, 14, 1, 222, 79, 313, 221, 313, 79, 222]]"
PBDB-T,NFBDT-Me,-5.297714285714285,-3.4170000000000003,-5.4,-3.78,1.667,CF,9.6,_,25.0,11.0,11.01,0.909,70.0,"[0, 0, 0, 0, 49, 7, 100, 9, 1, 263, 7, 219, 374, 219, 7, 263]","[[0, 0, 0, 0, 49, 7, 100, 9, 1, 263, 7, 219, 374, 219, 7, 263], [0, 0, 0, 0, 9, 49, 7, 100, 1, 263, 7, 219, 374, 219, 7, 263], [0, 0, 0, 0, 100, 9, 49, 7, 1, 263, 7, 219, 374, 219, 7, 263], [0, 0, 0, 0, 7, 100, 9, 49, 1, 263, 7, 219, 374, 219, 7, 263]]"
PBDB-T,IT-DM,-5.297714285714285,-3.4170000000000003,-5.515,-3.855,0.75,CB,20.0,_,160.0,10.41,10.41,0.95,68.7,"[0, 0, 0, 0, 49, 7, 100, 9, 1, 340, 79, 219, 221, 219, 79, 340]","[[0, 0, 0, 0, 49, 7, 100, 9, 1, 340, 79, 219, 221, 219, 79, 340], [0, 0, 0, 0, 9, 49, 7, 100, 1, 340, 79, 219, 221, 219, 79, 340], [0, 0, 0, 0, 100, 9, 49, 7, 1, 340, 79, 219, 221, 219, 79, 340], [0, 0, 0, 0, 7, 100, 9, 49, 1, 340, 79, 219, 221, 219, 79, 340]]"
PBDB-T,SN6IC,-5.297714285714285,-3.4170000000000003,-5.38,-3.93,1.0,CB,20.0,DIO,25.0,9.6,9.58,0.88,66.0,"[0, 0, 0, 0, 49, 7, 100, 9, 1, 222, 7, 265, 79, 265, 7, 222]","[[0, 0, 0, 0, 49, 7, 100, 9, 1, 222, 7, 265, 79, 265, 7, 222], [0, 0, 0, 0, 9, 49, 7, 100, 1, 222, 7, 265, 79, 265, 7, 222], [0, 0, 0, 0, 100, 9, 49, 7, 1, 222, 7, 265, 79, 265, 7, 222], [0, 0, 0, 0, 7, 100, 9, 49, 1, 222, 7, 265, 79, 265, 7, 222]]"
PBDB-T,SN6IC-4F,-5.297714285714285,-3.4170000000000003,-5.52,-4.11,1.0,CB,20.0,DIO,25.0,13.2,13.21,0.78,73.0,"[0, 0, 0, 0, 49, 7, 100, 9, 1, 217, 7, 265, 79, 265, 7, 217]","[[0, 0, 0, 0, 49, 7, 100, 9, 1, 217, 7, 265, 79, 265, 7, 217], [0, 0, 0, 0, 9, 49, 7, 100, 1, 217, 7, 265, 79, 265, 7, 217], [0, 0, 0, 0, 100, 9, 49, 7, 1, 217, 7, 265, 79, 265, 7, 217], [0, 0, 0, 0, 7, 100, 9, 49, 1, 217, 7, 265, 79, 265, 7, 217]]"
PTB7-Th,ITIC,-5.204782608695651,-3.5391891891891896,-5.574146341463415,-3.915,0.5,CB,25.0,_,25.0,7.8,7.84,0.825,66.0,"[0, 0, 0, 0, 0, 0, 49, 101, 1, 222, 79, 219, 221, 219, 79, 222]","[[0, 0, 0, 0, 0, 0, 49, 101, 1, 222, 79, 219, 221, 219, 79, 222], [0, 0, 0, 0, 0, 0, 101, 49, 1, 222, 79, 219, 221, 219, 79, 222]]"
PTB7-Th,IDTT-T,-5.204782608695651,-3.5391891891891896,-5.51,-3.51,0.5,CB,25.0,_,25.0,9.1,9.08,1.015,57.0,"[0, 0, 0, 0, 0, 0, 49, 101, 1, 266, 79, 219, 221, 219, 79, 266]","[[0, 0, 0, 0, 0, 0, 49, 101, 1, 266, 79, 219, 221, 219, 79, 266], [0, 0, 0, 0, 0, 0, 101, 49, 1, 266, 79, 219, 221, 219, 79, 266]]"
PBDB-T,IDT-IC,-5.297714285714285,-3.4170000000000003,-5.693333333333334,-3.866666666666666,1.0,DCB,8.0,_,25.0,4.69,4.29,0.83,49.0,"[0, 0, 0, 0, 49, 7, 100, 9, 1, 222, 7, 219, 221, 219, 7, 222]","[[0, 0, 0, 0, 49, 7, 100, 9, 1, 222, 7, 219, 221, 219, 7, 222], [0, 0, 0, 0, 9, 49, 7, 100, 1, 222, 7, 219, 221, 219, 7, 222], [0, 0, 0, 0, 100, 9, 49, 7, 1, 222, 7, 219, 221, 219, 7, 222], [0, 0, 0, 0, 7, 100, 9, 49, 1, 222, 7, 219, 221, 219, 7, 222]]"
PBDB-T,O-NTIC,-5.297714285714285,-3.4170000000000003,-5.51,-3.67,1.25,CB,19.9,DIO,25.0,9.1,9.1,0.978,69.9,"[0, 0, 0, 0, 49, 7, 100, 9, 1, 222, 7, 239, 267, 239, 7, 222]","[[0, 0, 0, 0, 49, 7, 100, 9, 1, 222, 7, 239, 267, 239, 7, 222], [0, 0, 0, 0, 9, 49, 7, 100, 1, 222, 7, 239, 267, 239, 7, 222], [0, 0, 0, 0, 100, 9, 49, 7, 1, 222, 7, 239, 267, 239, 7, 222], [0, 0, 0, 0, 7, 100, 9, 49, 1, 222, 7, 239, 267, 239, 7, 222]]"
PBDB-T,O-NTNC,-5.297714285714285,-3.4170000000000003,-5.54,-3.78,1.25,CB,19.9,DIO,25.0,11.04,11.05,0.942,73.4,"[0, 0, 0, 0, 49, 7, 100, 9, 1, 237, 7, 239, 267, 239, 7, 237]","[[0, 0, 0, 0, 49, 7, 100, 9, 1, 237, 7, 239, 267, 239, 7, 237], [0, 0, 0, 0, 9, 49, 7, 100, 1, 237, 7, 239, 267, 239, 7, 237], [0, 0, 0, 0, 100, 9, 49, 7, 1, 237, 7, 239, 267, 239, 7, 237], [0, 0, 0, 0, 7, 100, 9, 49, 1, 237, 7, 239, 267, 239, 7, 237]]"
PBDB-T,BTTFIC,-5.297714285714285,-3.4170000000000003,-5.56,-3.95,1.5,o-DCB,15.0,_,130.0,9.0,9.01,0.935,54.3,"[0, 0, 49, 7, 100, 9, 1, 222, 79, 225, 221, 225, 221, 225, 79, 222]","[[0, 0, 49, 7, 100, 9, 1, 222, 79, 225, 221, 225, 221, 225, 79, 222], [0, 0, 9, 49, 7, 100, 1, 222, 79, 225, 221, 225, 221, 225, 79, 222], [0, 0, 100, 9, 49, 7, 1, 222, 79, 225, 221, 225, 221, 225, 79, 222], [0, 0, 7, 100, 9, 49, 1, 222, 79, 225, 221, 225, 221, 225, 79, 222]]"
PTB7-Th,BTTFIC,-5.204782608695651,-3.5391891891891896,-5.56,-3.95,0.5,o-DCB,30.0,_,130.0,8.47,8.46,0.871,55.0,"[0, 0, 0, 0, 49, 101, 1, 222, 79, 225, 221, 225, 221, 225, 79, 222]","[[0, 0, 0, 0, 49, 101, 1, 222, 79, 225, 221, 225, 221, 225, 79, 222], [0, 0, 0, 0, 101, 49, 1, 222, 79, 225, 221, 225, 221, 225, 79, 222]]"
PM6,IT-4F,-5.529999999999999,-3.555,-5.66875,-4.060416666666667,1.0,CB,10.0,DIO,100.0,13.5,13.52,0.84,72.5,"[0, 0, 0, 0, 99, 7, 100, 9, 1, 217, 79, 219, 221, 219, 79, 217]","[[0, 0, 0, 0, 99, 7, 100, 9, 1, 217, 79, 219, 221, 219, 79, 217], [0, 0, 0, 0, 9, 99, 7, 100, 1, 217, 79, 219, 221, 219, 79, 217], [0, 0, 0, 0, 100, 9, 99, 7, 1, 217, 79, 219, 221, 219, 79, 217], [0, 0, 0, 0, 7, 100, 9, 99, 1, 217, 79, 219, 221, 219, 79, 217]]"
FTAZ,F5IC,-5.43,-3.3200000000000003,-5.82,-4.05,0.667,CF,12.5,DIO,25.0,5.6,5.63,0.704,53.7,"[0, 0, 0, 0, 60, 7, 20, 9, 1, 217, 7, 219, 221, 219, 7, 217]","[[0, 0, 0, 0, 60, 7, 20, 9, 1, 217, 7, 219, 221, 219, 7, 217], [0, 0, 0, 0, 9, 60, 7, 20, 1, 217, 7, 219, 221, 219, 7, 217], [0, 0, 0, 0, 20, 9, 60, 7, 1, 217, 7, 219, 221, 219, 7, 217], [0, 0, 0, 0, 7, 20, 9, 60, 1, 217, 7, 219, 221, 219, 7, 217]]"
FTAZ,F7IC,-5.43,-3.3200000000000003,-5.74,-4.01,0.667,CF,12.5,DIO,25.0,8.2,8.16,0.742,59.7,"[0, 0, 0, 0, 60, 7, 20, 9, 1, 217, 79, 219, 221, 219, 79, 217]","[[0, 0, 0, 0, 60, 7, 20, 9, 1, 217, 79, 219, 221, 219, 79, 217], [0, 0, 0, 0, 9, 60, 7, 20, 1, 217, 79, 219, 221, 219, 79, 217], [0, 0, 0, 0, 20, 9, 60, 7, 1, 217, 79, 219, 221, 219, 79, 217], [0, 0, 0, 0, 7, 20, 9, 60, 1, 217, 79, 219, 221, 219, 79, 217]]"
2D-PBTCl,ITIC,-5.45,-3.6,-5.574146341463415,-3.915,1.0,CB,8.0,DIO,25.0,8.81,8.81,0.91,61.32,"[0, 0, 0, 0, 0, 0, 49, 183, 1, 222, 79, 219, 221, 219, 79, 222]","[[0, 0, 0, 0, 0, 0, 49, 183, 1, 222, 79, 219, 221, 219, 79, 222], [0, 0, 0, 0, 0, 0, 183, 49, 1, 222, 79, 219, 221, 219, 79, 222]]"
2D-PBTCl2,ITIC,-5.43,-3.63,-5.574146341463415,-3.915,1.0,CB,8.0,DIO,25.0,7.38,7.38,0.87,58.43,"[0, 0, 0, 0, 0, 0, 49, 184, 1, 222, 79, 219, 221, 219, 79, 222]","[[0, 0, 0, 0, 0, 0, 49, 184, 1, 222, 79, 219, 221, 219, 79, 222], [0, 0, 0, 0, 0, 0, 184, 49, 1, 222, 79, 219, 221, 219, 79, 222]]"
PTB7-Th,ITIC,-5.204782608695651,-3.5391891891891896,-5.574146341463415,-3.915,1.0,CB,8.0,DIO,25.0,6.91,6.91,0.82,57.09,"[0, 0, 0, 0, 0, 0, 49, 101, 1, 222, 79, 219, 221, 219, 79, 222]","[[0, 0, 0, 0, 0, 0, 49, 101, 1, 222, 79, 219, 221, 219, 79, 222], [0, 0, 0, 0, 0, 0, 101, 49, 1, 222, 79, 219, 221, 219, 79, 222]]"
PBClT,ITIC,-5.47,-3.61,-5.574146341463415,-3.915,1.0,CB,8.0,_,25.0,8.46,8.46,1.01,60.05,"[0, 0, 0, 0, 0, 0, 138, 101, 1, 222, 79, 219, 221, 219, 79, 222]","[[0, 0, 0, 0, 0, 0, 138, 101, 1, 222, 79, 219, 221, 219, 79, 222], [0, 0, 0, 0, 0, 0, 101, 138, 1, 222, 79, 219, 221, 219, 79, 222]]"
PBDB-T,BDCPDT-FIC,-5.297714285714285,-3.4170000000000003,-5.52,-4.0,1.0,CB,12.0,_,25.0,8.12,8.12,0.7,60.67,"[0, 0, 49, 7, 100, 9, 1, 217, 7, 219, 218, 221, 218, 219, 7, 217]","[[0, 0, 49, 7, 100, 9, 1, 217, 7, 219, 218, 221, 218, 219, 7, 217], [0, 0, 9, 49, 7, 100, 1, 217, 7, 219, 218, 221, 218, 219, 7, 217], [0, 0, 100, 9, 49, 7, 1, 217, 7, 219, 218, 221, 218, 219, 7, 217], [0, 0, 7, 100, 9, 49, 1, 217, 7, 219, 218, 221, 218, 219, 7, 217]]"
PBFTT,ITIC,-5.47,-3.56,-5.574146341463415,-3.915,0.667,CB,20.0,_,25.0,9.1,9.1,0.94,60.5,"[0, 0, 0, 0, 0, 0, 99, 213, 1, 222, 79, 219, 221, 219, 79, 222]","[[0, 0, 0, 0, 0, 0, 99, 213, 1, 222, 79, 219, 221, 219, 79, 222], [0, 0, 0, 0, 0, 0, 213, 99, 1, 222, 79, 219, 221, 219, 79, 222]]"
PBDB-O,ITIC,-5.3,-2.82,-5.574146341463415,-3.915,1.0,CB,20.0,DIO,160.0,4.35,4.32,0.846,43.3,"[0, 0, 0, 0, 37, 7, 100, 9, 1, 222, 79, 219, 221, 219, 79, 222]","[[0, 0, 0, 0, 37, 7, 100, 9, 1, 222, 79, 219, 221, 219, 79, 222], [0, 0, 0, 0, 9, 37, 7, 100, 1, 222, 79, 219, 221, 219, 79, 222], [0, 0, 0, 0, 100, 9, 37, 7, 1, 222, 79, 219, 221, 219, 79, 222], [0, 0, 0, 0, 7, 100, 9, 37, 1, 222, 79, 219, 221, 219, 79, 222]]"
PBDB-T,BDTThIT-M,-5.297714285714285,-3.4170000000000003,-5.35,-3.82,1.0,CB,20.0,DIO,100.0,12.12,12.13,0.942,71.4,"[0, 0, 49, 7, 100, 9, 1, 230, 7, 219, 218, 221, 218, 219, 7, 230]","[[0, 0, 49, 7, 100, 9, 1, 230, 7, 219, 218, 221, 218, 219, 7, 230], [0, 0, 9, 49, 7, 100, 1, 230, 7, 219, 218, 221, 218, 219, 7, 230], [0, 0, 100, 9, 49, 7, 1, 230, 7, 219, 218, 221, 218, 219, 7, 230], [0, 0, 7, 100, 9, 49, 1, 230, 7, 219, 218, 221, 218, 219, 7, 230]]"
PFBZ,ITIC,-5.36,-3.42,-5.574146341463415,-3.915,0.8,CB,9.0,_,25.0,10.4,10.37,0.89,62.0,"[0, 0, 0, 0, 99, 7, 8, 9, 1, 222, 79, 219, 221, 219, 79, 222]","[[0, 0, 0, 0, 99, 7, 8, 9, 1, 222, 79, 219, 221, 219, 79, 222], [0, 0, 0, 0, 9, 99, 7, 8, 1, 222, 79, 219, 221, 219, 79, 222], [0, 0, 0, 0, 8, 9, 99, 7, 1, 222, 79, 219, 221, 219, 79, 222], [0, 0, 0, 0, 7, 8, 9, 99, 1, 222, 79, 219, 221, 219, 79, 222]]"
J60,ITIC,-5.32,-3.08,-5.574146341463415,-3.915,1.0,CF,10.0,_,25.0,5.17,5.17,0.92,57.45,"[0, 0, 0, 0, 14, 7, 8, 9, 1, 222, 79, 219, 221, 219, 79, 222]","[[0, 0, 0, 0, 14, 7, 8, 9, 1, 222, 79, 219, 221, 219, 79, 222], [0, 0, 0, 0, 9, 14, 7, 8, 1, 222, 79, 219, 221, 219, 79, 222], [0, 0, 0, 0, 8, 9, 14, 7, 1, 222, 79, 219, 221, 219, 79, 222], [0, 0, 0, 0, 7, 8, 9, 14, 1, 222, 79, 219, 221, 219, 79, 222]]"
J61,ITIC,-5.303333333333334,-3.151666666666667,-5.574146341463415,-3.915,1.0,CF,10.0,_,25.0,9.15,9.05,0.91,66.55,"[0, 0, 0, 0, 13, 7, 8, 9, 1, 222, 79, 219, 221, 219, 79, 222]","[[0, 0, 0, 0, 13, 7, 8, 9, 1, 222, 79, 219, 221, 219, 79, 222], [0, 0, 0, 0, 9, 13, 7, 8, 1, 222, 79, 219, 221, 219, 79, 222], [0, 0, 0, 0, 8, 9, 13, 7, 1, 222, 79, 219, 221, 219, 79, 222], [0, 0, 0, 0, 7, 8, 9, 13, 1, 222, 79, 219, 221, 219, 79, 222]]"
PTB7-Th,IEICO-4F,-5.204782608695651,-3.5391891891891896,-5.309971428571429,-3.851028571428572,0.667,CB,25.0,CN,25.0,11.6,11.6,0.72,69.41,"[0, 0, 0, 0, 49, 101, 1, 217, 229, 7, 219, 221, 219, 7, 229, 217]","[[0, 0, 0, 0, 49, 101, 1, 217, 229, 7, 219, 221, 219, 7, 229, 217], [0, 0, 0, 0, 101, 49, 1, 217, 229, 7, 219, 221, 219, 7, 229, 217]]"
PBO,ITIC,-5.47,-3.67,-5.574146341463415,-3.915,0.5,DCB,20.0,DIO,25.0,7.1,7.1,0.92,54.0,"[0, 0, 0, 0, 134, 7, 185, 9, 1, 222, 79, 219, 221, 219, 79, 222]","[[0, 0, 0, 0, 134, 7, 185, 9, 1, 222, 79, 219, 221, 219, 79, 222], [0, 0, 0, 0, 9, 134, 7, 185, 1, 222, 79, 219, 221, 219, 79, 222], [0, 0, 0, 0, 185, 9, 134, 7, 1, 222, 79, 219, 221, 219, 79, 222], [0, 0, 0, 0, 7, 185, 9, 134, 1, 222, 79, 219, 221, 219, 79, 222]]"
PBDB-T,TTIC-M,-5.297714285714285,-3.4170000000000003,-5.49,-4.03,1.0,CB,20.0,_,25.0,9.85,9.97,0.83,63.0,"[0, 0, 0, 0, 49, 7, 100, 9, 1, 230, 7, 219, 79, 219, 7, 230]","[[0, 0, 0, 0, 49, 7, 100, 9, 1, 230, 7, 219, 79, 219, 7, 230], [0, 0, 0, 0, 9, 49, 7, 100, 1, 230, 7, 219, 79, 219, 7, 230], [0, 0, 0, 0, 100, 9, 49, 7, 1, 230, 7, 219, 79, 219, 7, 230], [0, 0, 0, 0, 7, 100, 9, 49, 1, 230, 7, 219, 79, 219, 7, 230]]"
PBDB-T,TTIC-F,-5.297714285714285,-3.4170000000000003,-5.34,-3.88,1.0,CB,20.0,_,25.0,9.38,9.51,0.71,63.0,"[0, 0, 0, 0, 49, 7, 100, 9, 1, 264, 7, 219, 79, 219, 7, 264]","[[0, 0, 0, 0, 49, 7, 100, 9, 1, 264, 7, 219, 79, 219, 7, 264], [0, 0, 0, 0, 9, 49, 7, 100, 1, 264, 7, 219, 79, 219, 7, 264], [0, 0, 0, 0, 100, 9, 49, 7, 1, 264, 7, 219, 79, 219, 7, 264], [0, 0, 0, 0, 7, 100, 9, 49, 1, 264, 7, 219, 79, 219, 7, 264]]"
J71,ITIC,-5.353333333333333,-3.4318181818181825,-5.574146341463415,-3.915,0.8,CB,22.5,_,25.0,9.03,9.05,0.96,63.63,"[0, 0, 0, 0, 6, 7, 8, 9, 1, 222, 79, 219, 221, 219, 79, 222]","[[0, 0, 0, 0, 6, 7, 8, 9, 1, 222, 79, 219, 221, 219, 79, 222], [0, 0, 0, 0, 9, 6, 7, 8, 1, 222, 79, 219, 221, 219, 79, 222], [0, 0, 0, 0, 8, 9, 6, 7, 1, 222, 79, 219, 221, 219, 79, 222], [0, 0, 0, 0, 7, 8, 9, 6, 1, 222, 79, 219, 221, 219, 79, 222]]"
FTAZ,ITIC,-5.43,-3.3200000000000003,-5.574146341463415,-3.915,0.667,CF,15.0,_,25.0,8.77,8.83,0.911,58.0,"[0, 0, 0, 0, 60, 7, 20, 9, 1, 222, 79, 219, 221, 219, 79, 222]","[[0, 0, 0, 0, 60, 7, 20, 9, 1, 222, 79, 219, 221, 219, 79, 222], [0, 0, 0, 0, 9, 60, 7, 20, 1, 222, 79, 219, 221, 219, 79, 222], [0, 0, 0, 0, 20, 9, 60, 7, 1, 222, 79, 219, 221, 219, 79, 222], [0, 0, 0, 0, 7, 20, 9, 60, 1, 222, 79, 219, 221, 219, 79, 222]]"
HTAZ,ITIC,-5.42,-3.44,-5.574146341463415,-3.915,0.667,CF,15.0,_,25.0,4.5,4.52,0.851,40.8,"[0, 0, 0, 0, 186, 7, 187, 9, 1, 222, 79, 219, 221, 219, 79, 222]","[[0, 0, 0, 0, 186, 7, 187, 9, 1, 222, 79, 219, 221, 219, 79, 222], [0, 0, 0, 0, 9, 186, 7, 187, 1, 222, 79, 219, 221, 219, 79, 222], [0, 0, 0, 0, 187, 9, 186, 7, 1, 222, 79, 219, 221, 219, 79, 222], [0, 0, 0, 0, 7, 187, 9, 186, 1, 222, 79, 219, 221, 219, 79, 222]]"
PBDB-T,IT-M,-5.297714285714285,-3.4170000000000003,-5.513571428571429,-3.808,1.0,CB,20.0,DIO,25.0,11.5,11.23,0.961,70.0,"[0, 0, 0, 0, 49, 7, 100, 9, 1, 230, 79, 219, 221, 219, 79, 230]","[[0, 0, 0, 0, 49, 7, 100, 9, 1, 230, 79, 219, 221, 219, 79, 230], [0, 0, 0, 0, 9, 49, 7, 100, 1, 230, 79, 219, 221, 219, 79, 230], [0, 0, 0, 0, 100, 9, 49, 7, 1, 230, 79, 219, 221, 219, 79, 230], [0, 0, 0, 0, 7, 100, 9, 49, 1, 230, 79, 219, 221, 219, 79, 230]]"
PTB7-Th,4TIC,-5.204782608695651,-3.5391891891891896,-5.28,-3.87,0.5,CB,30.0,DIO,25.0,10.43,10.56,0.78,72.0,"[0, 0, 0, 0, 0, 0, 49, 101, 1, 222, 7, 219, 79, 219, 7, 222]","[[0, 0, 0, 0, 0, 0, 49, 101, 1, 222, 7, 219, 79, 219, 7, 222], [0, 0, 0, 0, 0, 0, 101, 49, 1, 222, 7, 219, 79, 219, 7, 222]]"
PTB7-Th,ITIC,-5.204782608695651,-3.5391891891891896,-5.574146341463415,-3.915,0.8,CB,22.5,_,25.0,7.28,7.18,0.83,57.0,"[0, 0, 0, 0, 0, 0, 49, 101, 1, 222, 79, 219, 221, 219, 79, 222]","[[0, 0, 0, 0, 0, 0, 49, 101, 1, 222, 79, 219, 221, 219, 79, 222], [0, 0, 0, 0, 0, 0, 101, 49, 1, 222, 79, 219, 221, 219, 79, 222]]"
TBF-BDD,ITIC,-5.37,-3.65,-5.574146341463415,-3.915,1.0,CF,16.0,_,110.0,7.13,7.11,0.85,56.0,"[0, 0, 0, 0, 188, 7, 100, 9, 1, 222, 79, 219, 221, 219, 79, 222]","[[0, 0, 0, 0, 188, 7, 100, 9, 1, 222, 79, 219, 221, 219, 79, 222], [0, 0, 0, 0, 9, 188, 7, 100, 1, 222, 79, 219, 221, 219, 79, 222], [0, 0, 0, 0, 100, 9, 188, 7, 1, 222, 79, 219, 221, 219, 79, 222], [0, 0, 0, 0, 7, 100, 9, 188, 1, 222, 79, 219, 221, 219, 79, 222]]"
TBF-BT,ITIC,-5.4,-3.55,-5.574146341463415,-3.915,1.0,CF,16.0,_,110.0,7.03,7.09,0.81,63.0,"[0, 0, 0, 0, 188, 7, 38, 9, 1, 222, 79, 219, 221, 219, 79, 222]","[[0, 0, 0, 0, 188, 7, 38, 9, 1, 222, 79, 219, 221, 219, 79, 222], [0, 0, 0, 0, 9, 188, 7, 38, 1, 222, 79, 219, 221, 219, 79, 222], [0, 0, 0, 0, 38, 9, 188, 7, 1, 222, 79, 219, 221, 219, 79, 222], [0, 0, 0, 0, 7, 38, 9, 188, 1, 222, 79, 219, 221, 219, 79, 222]]"
PBT,CzC6C8,-5.43,-3.65,-5.79,-3.79,0.333,CB,25.0,_,130.0,3.3,3.34,0.99,41.0,"[0, 0, 0, 0, 134, 7, 74, 9, 1, 240, 56, 221, 331, 221, 56, 240]","[[0, 0, 0, 0, 134, 7, 74, 9, 1, 240, 56, 221, 331, 221, 56, 240], [0, 0, 0, 0, 9, 134, 7, 74, 1, 240, 56, 221, 331, 221, 56, 240], [0, 0, 0, 0, 74, 9, 134, 7, 1, 240, 56, 221, 331, 221, 56, 240], [0, 0, 0, 0, 7, 74, 9, 134, 1, 240, 56, 221, 331, 221, 56, 240]]"
PBT,CZC8,-5.43,-3.65,-5.72,-3.74,0.333,CB,25.0,_,130.0,4.64,4.64,1.03,50.0,"[0, 0, 0, 0, 0, 0, 134, 7, 74, 9, 1, 240, 56, 375, 56, 240]","[[0, 0, 0, 0, 0, 0, 134, 7, 74, 9, 1, 240, 56, 375, 56, 240], [0, 0, 0, 0, 0, 0, 9, 134, 7, 74, 1, 240, 56, 375, 56, 240], [0, 0, 0, 0, 0, 0, 74, 9, 134, 7, 1, 240, 56, 375, 56, 240], [0, 0, 0, 0, 0, 0, 7, 74, 9, 134, 1, 240, 56, 375, 56, 240]]"
PTB7-Th,CZC8,-5.204782608695651,-3.5391891891891896,-5.72,-3.74,0.333,CB,25.0,_,100.0,4.91,4.96,0.98,45.0,"[0, 0, 0, 0, 0, 0, 0, 0, 49, 101, 1, 240, 56, 375, 56, 240]","[[0, 0, 0, 0, 0, 0, 0, 0, 49, 101, 1, 240, 56, 375, 56, 240], [0, 0, 0, 0, 0, 0, 0, 0, 101, 49, 1, 240, 56, 375, 56, 240]]"
PTB7-Th,BTA2,-5.204782608695651,-3.5391891891891896,-5.43,-3.3800000000000003,0.5,CF,15.0,DPE,80.0,0.01,0.01,1.01,27.0,"[0, 0, 0, 0, 49, 101, 1, 333, 18, 7, 219, 221, 219, 7, 18, 333]","[[0, 0, 0, 0, 49, 101, 1, 333, 18, 7, 219, 221, 219, 7, 18, 333], [0, 0, 0, 0, 101, 49, 1, 333, 18, 7, 219, 221, 219, 7, 18, 333]]"
P3HT,BT2,-5.057777777777777,-2.989444444444445,-5.5,-3.53,1.5,CF,15.0,_,150.0,4.93,4.93,0.97,67.0,"[0, 0, 41, 40, 40, 194, 1, 333, 56, 7, 219, 221, 219, 7, 56, 333]","[[0, 0, 41, 40, 40, 194, 1, 333, 56, 7, 219, 221, 219, 7, 56, 333], [0, 0, 194, 41, 40, 40, 1, 333, 56, 7, 219, 221, 219, 7, 56, 333], [0, 0, 40, 194, 41, 40, 1, 333, 56, 7, 219, 221, 219, 7, 56, 333], [0, 0, 40, 40, 194, 41, 1, 333, 56, 7, 219, 221, 219, 7, 56, 333]]"
P3HT,BT2b,-5.057777777777777,-2.989444444444445,-5.41,-3.56,1.0,CF,15.0,_,150.0,6.08,6.08,0.92,66.0,"[0, 0, 41, 40, 40, 194, 1, 333, 56, 7, 225, 221, 225, 7, 56, 333]","[[0, 0, 41, 40, 40, 194, 1, 333, 56, 7, 225, 221, 225, 7, 56, 333], [0, 0, 194, 41, 40, 40, 1, 333, 56, 7, 225, 221, 225, 7, 56, 333], [0, 0, 40, 194, 41, 40, 1, 333, 56, 7, 225, 221, 225, 7, 56, 333], [0, 0, 40, 40, 194, 41, 1, 333, 56, 7, 225, 221, 225, 7, 56, 333]]"
PBDB-T,CDTCN,-5.297714285714285,-3.4170000000000003,-5.39,-3.8,1.0,CB,20.0,DIO,80.0,6.23,6.22,0.96,57.58,"[49, 7, 100, 9, 1, 222, 7, 7, 219, 221, 322, 221, 219, 7, 7, 222]","[[49, 7, 100, 9, 1, 222, 7, 7, 219, 221, 322, 221, 219, 7, 7, 222], [9, 49, 7, 100, 1, 222, 7, 7, 219, 221, 322, 221, 219, 7, 7, 222], [100, 9, 49, 7, 1, 222, 7, 7, 219, 221, 322, 221, 219, 7, 7, 222], [7, 100, 9, 49, 1, 222, 7, 7, 219, 221, 322, 221, 219, 7, 7, 222]]"
PTB7-Th,IHIC,-5.204782608695651,-3.5391891891891896,-5.45,-3.93,0.667,DCB,20.0,CN,25.0,9.77,9.76,0.754,68.1,"[0, 0, 0, 0, 0, 0, 49, 101, 1, 222, 7, 219, 79, 219, 7, 222]","[[0, 0, 0, 0, 0, 0, 49, 101, 1, 222, 7, 219, 79, 219, 7, 222], [0, 0, 0, 0, 0, 0, 101, 49, 1, 222, 7, 219, 79, 219, 7, 222]]"
PBDB-T,ITIC,-5.297714285714285,-3.4170000000000003,-5.574146341463415,-3.915,1.0,CB,20.0,DIO,25.0,7.4,7.26,0.88,59.8,"[0, 0, 0, 0, 49, 7, 100, 9, 1, 222, 79, 219, 221, 219, 79, 222]","[[0, 0, 0, 0, 49, 7, 100, 9, 1, 222, 79, 219, 221, 219, 79, 222], [0, 0, 0, 0, 9, 49, 7, 100, 1, 222, 79, 219, 221, 219, 79, 222], [0, 0, 0, 0, 100, 9, 49, 7, 1, 222, 79, 219, 221, 219, 79, 222], [0, 0, 0, 0, 7, 100, 9, 49, 1, 222, 79, 219, 221, 219, 79, 222]]"
PBDTTT-C-T,IDT-2BM,-5.128,-3.268,-5.586666666666666,-4.083333333333333,1.5,o-DCB,30.0,CN,25.0,4.26,4.26,0.766,55.1,"[0, 0, 0, 0, 49, 112, 1, 305, 56, 7, 219, 221, 219, 7, 56, 305]","[[0, 0, 0, 0, 49, 112, 1, 305, 56, 7, 219, 221, 219, 7, 56, 305], [0, 0, 0, 0, 112, 49, 1, 305, 56, 7, 219, 221, 219, 7, 56, 305]]"