Donor,Acceptor,HOMO_D_eV,LUMO_D_eV,HOMO_A_eV,LUMO_A_eV,D_A_ratio_m_m,solvent,total_solids_conc_mg_mL,solvent_additive,annealing_temperature,PCE_percent,calc_PCE_percent,Voc_V,FF_percent,DA_manual_tokenized,DA_manual_tokenized_aug
FTAZ,ITIC-Th1,-5.43,-3.3200000000000003,-5.720000000000001,-4.065,0.667,CF,12.0,DIO,25.0,12.1,12.1,0.849,73.73,"[0, 0, 0, 0, 60, 7, 20, 9, 1, 264, 79, 313, 221, 313, 79, 264]","[[0, 0, 0, 0, 60, 7, 20, 9, 1, 264, 79, 313, 221, 313, 79, 264], [0, 0, 0, 0, 9, 60, 7, 20, 1, 264, 79, 313, 221, 313, 79, 264], [0, 0, 0, 0, 20, 9, 60, 7, 1, 264, 79, 313, 221, 313, 79, 264], [0, 0, 0, 0, 7, 20, 9, 60, 1, 264, 79, 313, 221, 313, 79, 264]]"
FTAZ,ITIC-Th2,-5.43,-3.3200000000000003,-5.75,-4.07,0.667,CF,12.5,DIO,25.0,9.06,9.05,0.751,70.07,"[0, 0, 0, 0, 60, 7, 20, 9, 1, 217, 79, 313, 221, 313, 79, 217]","[[0, 0, 0, 0, 60, 7, 20, 9, 1, 217, 79, 313, 221, 313, 79, 217], [0, 0, 0, 0, 9, 60, 7, 20, 1, 217, 79, 313, 221, 313, 79, 217], [0, 0, 0, 0, 20, 9, 60, 7, 1, 217, 79, 313, 221, 313, 79, 217], [0, 0, 0, 0, 7, 20, 9, 60, 1, 217, 79, 313, 221, 313, 79, 217]]"
FTAZ,ITIC-Th3,-5.43,-3.3200000000000003,-5.67,-3.73,0.667,CF,12.5,DIO,25.0,10.7,10.74,0.962,68.33,"[0, 0, 0, 0, 60, 7, 20, 9, 1, 281, 79, 313, 221, 313, 79, 281]","[[0, 0, 0, 0, 60, 7, 20, 9, 1, 281, 79, 313, 221, 313, 79, 281], [0, 0, 0, 0, 9, 60, 7, 20, 1, 281, 79, 313, 221, 313, 79, 281], [0, 0, 0, 0, 20, 9, 60, 7, 1, 281, 79, 313, 221, 313, 79, 281], [0, 0, 0, 0, 7, 20, 9, 60, 1, 281, 79, 313, 221, 313, 79, 281]]"
J52,IT-M,-5.218571428571429,-3.341428571428572,-5.513571428571429,-3.808,1.0,CB,12.0,DIO,150.0,9.4,9.38,0.843,65.1,"[0, 0, 0, 0, 10, 7, 8, 9, 1, 230, 79, 219, 221, 219, 79, 230]","[[0, 0, 0, 0, 10, 7, 8, 9, 1, 230, 79, 219, 221, 219, 79, 230], [0, 0, 0, 0, 9, 10, 7, 8, 1, 230, 79, 219, 221, 219, 79, 230], [0, 0, 0, 0, 8, 9, 10, 7, 1, 230, 79, 219, 221, 219, 79, 230], [0, 0, 0, 0, 7, 8, 9, 10, 1, 230, 79, 219, 221, 219, 79, 230]]"
J71,MeIC2,-5.353333333333333,-3.4318181818181825,-5.56,-3.97,1.0,CF,18.0,_,150.0,10.2,10.38,0.885,69.4,"[0, 0, 6, 7, 8, 9, 1, 227, 7, 219, 218, 221, 218, 219, 7, 227]","[[0, 0, 6, 7, 8, 9, 1, 227, 7, 219, 218, 221, 218, 219, 7, 227], [0, 0, 9, 6, 7, 8, 1, 227, 7, 219, 218, 221, 218, 219, 7, 227], [0, 0, 8, 9, 6, 7, 1, 227, 7, 219, 218, 221, 218, 219, 7, 227], [0, 0, 7, 8, 9, 6, 1, 227, 7, 219, 218, 221, 218, 219, 7, 227]]"
J70,m-ITIC,-5.37,-2.91,-5.526666666666667,-3.8515384615384622,0.667,CF,20.0,_,150.0,11.62,11.62,0.92,69.82,"[0, 0, 0, 0, 30, 7, 8, 9, 1, 222, 79, 228, 221, 228, 79, 222]","[[0, 0, 0, 0, 30, 7, 8, 9, 1, 222, 79, 228, 221, 228, 79, 222], [0, 0, 0, 0, 9, 30, 7, 8, 1, 222, 79, 228, 221, 228, 79, 222], [0, 0, 0, 0, 8, 9, 30, 7, 1, 222, 79, 228, 221, 228, 79, 222], [0, 0, 0, 0, 7, 8, 9, 30, 1, 222, 79, 228, 221, 228, 79, 222]]"
J71,m-ITIC,-5.353333333333333,-3.4318181818181825,-5.526666666666667,-3.8515384615384622,0.667,CF,20.0,_,150.0,12.05,12.05,0.944,70.59,"[0, 0, 0, 0, 6, 7, 8, 9, 1, 222, 79, 228, 221, 228, 79, 222]","[[0, 0, 0, 0, 6, 7, 8, 9, 1, 222, 79, 228, 221, 228, 79, 222], [0, 0, 0, 0, 9, 6, 7, 8, 1, 222, 79, 228, 221, 228, 79, 222], [0, 0, 0, 0, 8, 9, 6, 7, 1, 222, 79, 228, 221, 228, 79, 222], [0, 0, 0, 0, 7, 8, 9, 6, 1, 222, 79, 228, 221, 228, 79, 222]]"
J73,m-ITIC,-5.46,-2.92,-5.526666666666667,-3.8515384615384622,0.667,CF,20.0,_,150.0,10.71,10.71,0.974,66.87,"[0, 0, 0, 0, 32, 7, 8, 9, 1, 222, 79, 228, 221, 228, 79, 222]","[[0, 0, 0, 0, 32, 7, 8, 9, 1, 222, 79, 228, 221, 228, 79, 222], [0, 0, 0, 0, 9, 32, 7, 8, 1, 222, 79, 228, 221, 228, 79, 222], [0, 0, 0, 0, 8, 9, 32, 7, 1, 222, 79, 228, 221, 228, 79, 222], [0, 0, 0, 0, 7, 8, 9, 32, 1, 222, 79, 228, 221, 228, 79, 222]]"
J74,m-ITIC,-5.56,-3.06,-5.526666666666667,-3.8515384615384622,0.667,CF,20.0,_,150.0,9.63,9.62,0.99,61.18,"[0, 0, 0, 0, 33, 7, 8, 9, 1, 222, 79, 228, 221, 228, 79, 222]","[[0, 0, 0, 0, 33, 7, 8, 9, 1, 222, 79, 228, 221, 228, 79, 222], [0, 0, 0, 0, 9, 33, 7, 8, 1, 222, 79, 228, 221, 228, 79, 222], [0, 0, 0, 0, 8, 9, 33, 7, 1, 222, 79, 228, 221, 228, 79, 222], [0, 0, 0, 0, 7, 8, 9, 33, 1, 222, 79, 228, 221, 228, 79, 222]]"
J91,m-ITIC,-5.5,-3.02,-5.526666666666667,-3.8515384615384622,0.667,CF,12.0,_,150.0,11.63,11.63,0.984,65.54,"[0, 0, 0, 0, 11, 7, 8, 9, 1, 222, 79, 228, 221, 228, 79, 222]","[[0, 0, 0, 0, 11, 7, 8, 9, 1, 222, 79, 228, 221, 228, 79, 222], [0, 0, 0, 0, 9, 11, 7, 8, 1, 222, 79, 228, 221, 228, 79, 222], [0, 0, 0, 0, 8, 9, 11, 7, 1, 222, 79, 228, 221, 228, 79, 222], [0, 0, 0, 0, 7, 8, 9, 11, 1, 222, 79, 228, 221, 228, 79, 222]]"
J52,m-ITIC,-5.218571428571429,-3.341428571428572,-5.526666666666667,-3.8515384615384622,0.667,CF,12.0,_,150.0,5.98,5.98,0.701,49.73,"[0, 0, 0, 0, 10, 7, 8, 9, 1, 222, 79, 228, 221, 228, 79, 222]","[[0, 0, 0, 0, 10, 7, 8, 9, 1, 222, 79, 228, 221, 228, 79, 222], [0, 0, 0, 0, 9, 10, 7, 8, 1, 222, 79, 228, 221, 228, 79, 222], [0, 0, 0, 0, 8, 9, 10, 7, 1, 222, 79, 228, 221, 228, 79, 222], [0, 0, 0, 0, 7, 8, 9, 10, 1, 222, 79, 228, 221, 228, 79, 222]]"
J61,TP21,-5.303333333333334,-3.151666666666667,-5.46,-3.61,1.0,CB,20.0,_,140.0,5.81,5.85,1.05,51.0,"[0, 0, 0, 0, 13, 7, 8, 9, 1, 240, 241, 221, 225, 221, 241, 240]","[[0, 0, 0, 0, 13, 7, 8, 9, 1, 240, 241, 221, 225, 221, 241, 240], [0, 0, 0, 0, 9, 13, 7, 8, 1, 240, 241, 221, 225, 221, 241, 240], [0, 0, 0, 0, 8, 9, 13, 7, 1, 240, 241, 221, 225, 221, 241, 240], [0, 0, 0, 0, 7, 8, 9, 13, 1, 240, 241, 221, 225, 221, 241, 240]]"
FTAZ,IHIC2,-5.43,-3.3200000000000003,-5.69,-3.86,0.667,CF,13.5,_,25.0,7.45,7.45,0.775,61.2,"[0, 0, 0, 0, 60, 7, 20, 9, 1, 217, 7, 219, 267, 219, 7, 217]","[[0, 0, 0, 0, 60, 7, 20, 9, 1, 217, 7, 219, 267, 219, 7, 217], [0, 0, 0, 0, 9, 60, 7, 20, 1, 217, 7, 219, 267, 219, 7, 217], [0, 0, 0, 0, 20, 9, 60, 7, 1, 217, 7, 219, 267, 219, 7, 217], [0, 0, 0, 0, 7, 20, 9, 60, 1, 217, 7, 219, 267, 219, 7, 217]]"
FTAZ,IOIC2,-5.43,-3.3200000000000003,-5.41,-3.78,0.667,CF,13.5,DIO,25.0,12.3,12.29,0.9,69.3,"[0, 0, 60, 7, 20, 9, 1, 217, 218, 219, 7, 220, 7, 219, 218, 217]","[[0, 0, 60, 7, 20, 9, 1, 217, 218, 219, 7, 220, 7, 219, 218, 217], [0, 0, 9, 60, 7, 20, 1, 217, 218, 219, 7, 220, 7, 219, 218, 217], [0, 0, 20, 9, 60, 7, 1, 217, 218, 219, 7, 220, 7, 219, 218, 217], [0, 0, 7, 20, 9, 60, 1, 217, 218, 219, 7, 220, 7, 219, 218, 217]]"
PBQ-QF,ITIC,-5.34,-3.62,-5.574146341463415,-3.915,1.0,THF,12.0,isopropanol,160.0,8.9,8.9,0.83,62.49,"[0, 0, 0, 0, 49, 7, 98, 9, 1, 222, 79, 219, 221, 219, 79, 222]","[[0, 0, 0, 0, 49, 7, 98, 9, 1, 222, 79, 219, 221, 219, 79, 222], [0, 0, 0, 0, 9, 49, 7, 98, 1, 222, 79, 219, 221, 219, 79, 222], [0, 0, 0, 0, 98, 9, 49, 7, 1, 222, 79, 219, 221, 219, 79, 222], [0, 0, 0, 0, 7, 98, 9, 49, 1, 222, 79, 219, 221, 219, 79, 222]]"
PBQ-4F,ITIC,-5.49,-3.7,-5.574146341463415,-3.915,1.0,THF,12.0,isopropanol,160.0,11.34,11.34,0.95,66.8,"[0, 0, 0, 0, 99, 7, 98, 9, 1, 222, 79, 219, 221, 219, 79, 222]","[[0, 0, 0, 0, 99, 7, 98, 9, 1, 222, 79, 219, 221, 219, 79, 222], [0, 0, 0, 0, 9, 99, 7, 98, 1, 222, 79, 219, 221, 219, 79, 222], [0, 0, 0, 0, 98, 9, 99, 7, 1, 222, 79, 219, 221, 219, 79, 222], [0, 0, 0, 0, 7, 98, 9, 99, 1, 222, 79, 219, 221, 219, 79, 222]]"
PBTA-TF,ITCC,-5.36,-3.4200000000000004,-5.47,-3.76,1.0,CF,16.0,DIO,25.0,10.4,10.41,1.0,67.0,"[0, 0, 0, 0, 192, 7, 193, 9, 1, 270, 79, 219, 221, 219, 79, 270]","[[0, 0, 0, 0, 192, 7, 193, 9, 1, 270, 79, 219, 221, 219, 79, 270], [0, 0, 0, 0, 9, 192, 7, 193, 1, 270, 79, 219, 221, 219, 79, 270], [0, 0, 0, 0, 193, 9, 192, 7, 1, 270, 79, 219, 221, 219, 79, 270], [0, 0, 0, 0, 7, 193, 9, 192, 1, 270, 79, 219, 221, 219, 79, 270]]"
PBTA-TF,IT-M,-5.36,-3.4200000000000004,-5.513571428571429,-3.808,1.0,CF,16.0,DIO,25.0,12.2,12.23,0.97,71.0,"[0, 0, 0, 0, 192, 7, 193, 9, 1, 230, 79, 219, 221, 219, 79, 230]","[[0, 0, 0, 0, 192, 7, 193, 9, 1, 230, 79, 219, 221, 219, 79, 230], [0, 0, 0, 0, 9, 192, 7, 193, 1, 230, 79, 219, 221, 219, 79, 230], [0, 0, 0, 0, 193, 9, 192, 7, 1, 230, 79, 219, 221, 219, 79, 230], [0, 0, 0, 0, 7, 193, 9, 192, 1, 230, 79, 219, 221, 219, 79, 230]]"
PBTA-TF,IT-4F,-5.36,-3.4200000000000004,-5.66875,-4.060416666666667,1.0,CF,16.0,DIO,25.0,10.6,10.64,0.73,72.0,"[0, 0, 0, 0, 192, 7, 193, 9, 1, 217, 79, 219, 221, 219, 79, 217]","[[0, 0, 0, 0, 192, 7, 193, 9, 1, 217, 79, 219, 221, 219, 79, 217], [0, 0, 0, 0, 9, 192, 7, 193, 1, 217, 79, 219, 221, 219, 79, 217], [0, 0, 0, 0, 193, 9, 192, 7, 1, 217, 79, 219, 221, 219, 79, 217], [0, 0, 0, 0, 7, 193, 9, 192, 1, 217, 79, 219, 221, 219, 79, 217]]"
PBTA-TF,IT-M,-5.36,-3.4200000000000004,-5.513571428571429,-3.808,1.0,o-xylene,24.0,PN,25.0,13.1,13.09,0.97,72.0,"[0, 0, 0, 0, 192, 7, 193, 9, 1, 230, 79, 219, 221, 219, 79, 230]","[[0, 0, 0, 0, 192, 7, 193, 9, 1, 230, 79, 219, 221, 219, 79, 230], [0, 0, 0, 0, 9, 192, 7, 193, 1, 230, 79, 219, 221, 219, 79, 230], [0, 0, 0, 0, 193, 9, 192, 7, 1, 230, 79, 219, 221, 219, 79, 230], [0, 0, 0, 0, 7, 193, 9, 192, 1, 230, 79, 219, 221, 219, 79, 230]]"
PBDB-T,ITIC,-5.297714285714285,-3.4170000000000003,-5.574146341463415,-3.915,1.0,CB,20.0,DIO,160.0,11.21,11.21,0.899,74.2,"[0, 0, 0, 0, 49, 7, 100, 9, 1, 222, 79, 219, 221, 219, 79, 222]","[[0, 0, 0, 0, 49, 7, 100, 9, 1, 222, 79, 219, 221, 219, 79, 222], [0, 0, 0, 0, 9, 49, 7, 100, 1, 222, 79, 219, 221, 219, 79, 222], [0, 0, 0, 0, 100, 9, 49, 7, 1, 222, 79, 219, 221, 219, 79, 222], [0, 0, 0, 0, 7, 100, 9, 49, 1, 222, 79, 219, 221, 219, 79, 222]]"
PBDB-T,ITIC,-5.297714285714285,-3.4170000000000003,-5.574146341463415,-3.915,1.0,CB,20.0,DIO,25.0,11.05,11.05,0.9,72.1,"[0, 0, 0, 0, 49, 7, 100, 9, 1, 222, 79, 219, 221, 219, 79, 222]","[[0, 0, 0, 0, 49, 7, 100, 9, 1, 222, 79, 219, 221, 219, 79, 222], [0, 0, 0, 0, 9, 49, 7, 100, 1, 222, 79, 219, 221, 219, 79, 222], [0, 0, 0, 0, 100, 9, 49, 7, 1, 222, 79, 219, 221, 219, 79, 222], [0, 0, 0, 0, 7, 100, 9, 49, 1, 222, 79, 219, 221, 219, 79, 222]]"
PTB7,SFBRCN,-5.175,-3.435,-5.93,-3.86,0.833,CB,22.0,DIO,25.0,7.34,7.15,0.85,60.7,"[0, 0, 0, 0, 0, 0, 37, 101, 1, 236, 56, 221, 276, 221, 56, 236]","[[0, 0, 0, 0, 0, 0, 37, 101, 1, 236, 56, 221, 276, 221, 56, 236], [0, 0, 0, 0, 0, 0, 101, 37, 1, 236, 56, 221, 276, 221, 56, 236]]"
PTB7-Th,SFBRCN,-5.204782608695651,-3.5391891891891896,-5.93,-3.86,0.833,CB,22.0,DIO,25.0,9.9,9.93,0.9,64.0,"[0, 0, 0, 0, 0, 0, 49, 101, 1, 236, 56, 221, 276, 221, 56, 236]","[[0, 0, 0, 0, 0, 0, 49, 101, 1, 236, 56, 221, 276, 221, 56, 236], [0, 0, 0, 0, 0, 0, 101, 49, 1, 236, 56, 221, 276, 221, 56, 236]]"
PBDB-T,ITIC,-5.297714285714285,-3.4170000000000003,-5.574146341463415,-3.915,1.0,CB,20.0,DIO,100.0,10.6,10.59,0.93,67.0,"[0, 0, 0, 0, 49, 7, 100, 9, 1, 222, 79, 219, 221, 219, 79, 222]","[[0, 0, 0, 0, 49, 7, 100, 9, 1, 222, 79, 219, 221, 219, 79, 222], [0, 0, 0, 0, 9, 49, 7, 100, 1, 222, 79, 219, 221, 219, 79, 222], [0, 0, 0, 0, 100, 9, 49, 7, 1, 222, 79, 219, 221, 219, 79, 222], [0, 0, 0, 0, 7, 100, 9, 49, 1, 222, 79, 219, 221, 219, 79, 222]]"
PBDB-T,ITCC,-5.297714285714285,-3.4170000000000003,-5.47,-3.76,1.0,CB,20.0,DIO,100.0,11.4,11.4,1.01,71.0,"[0, 0, 0, 0, 49, 7, 100, 9, 1, 270, 79, 219, 221, 219, 79, 270]","[[0, 0, 0, 0, 49, 7, 100, 9, 1, 270, 79, 219, 221, 219, 79, 270], [0, 0, 0, 0, 9, 49, 7, 100, 1, 270, 79, 219, 221, 219, 79, 270], [0, 0, 0, 0, 100, 9, 49, 7, 1, 270, 79, 219, 221, 219, 79, 270], [0, 0, 0, 0, 7, 100, 9, 49, 1, 270, 79, 219, 221, 219, 79, 270]]"
PBDTTT-E-T,IEIC,-5.09,-3.48,-5.455,-3.8625,0.667,CB,25.0,DIO,100.0,4.9,4.95,0.9,47.0,"[0, 0, 0, 0, 49, 102, 1, 222, 64, 7, 219, 221, 219, 7, 64, 222]","[[0, 0, 0, 0, 49, 102, 1, 222, 64, 7, 219, 221, 219, 7, 64, 222], [0, 0, 0, 0, 102, 49, 1, 222, 64, 7, 219, 221, 219, 7, 64, 222]]"
PBDTTT-E-T,IEICO,-5.09,-3.48,-5.32,-3.95,1.0,CB,20.0,DIO,100.0,8.4,8.42,0.82,58.0,"[0, 0, 0, 0, 49, 102, 1, 222, 229, 7, 219, 221, 219, 7, 229, 222]","[[0, 0, 0, 0, 49, 102, 1, 222, 229, 7, 219, 221, 219, 7, 229, 222], [0, 0, 0, 0, 102, 49, 1, 222, 229, 7, 219, 221, 219, 7, 229, 222]]"
PTB7-Th,IEICO,-5.204782608695651,-3.5391891891891896,-5.32,-3.95,1.0,CB,22.0,DIO,100.0,7.3,7.32,0.91,60.5,"[0, 0, 0, 0, 49, 101, 1, 222, 229, 7, 219, 221, 219, 7, 229, 222]","[[0, 0, 0, 0, 49, 101, 1, 222, 229, 7, 219, 221, 219, 7, 229, 222], [0, 0, 0, 0, 101, 49, 1, 222, 229, 7, 219, 221, 219, 7, 229, 222]]"
PBDB-T,NITI,-5.297714285714285,-3.4170000000000003,-5.68,-3.84,1.0,CB,10.0,_,25.0,9.49,12.86,0.86,84.0,"[0, 0, 0, 0, 49, 7, 100, 9, 1, 217, 268, 221, 277, 221, 268, 217]","[[0, 0, 0, 0, 49, 7, 100, 9, 1, 217, 268, 221, 277, 221, 268, 217], [0, 0, 0, 0, 9, 49, 7, 100, 1, 217, 268, 221, 277, 221, 268, 217], [0, 0, 0, 0, 100, 9, 49, 7, 1, 217, 268, 221, 277, 221, 268, 217], [0, 0, 0, 0, 7, 100, 9, 49, 1, 217, 268, 221, 277, 221, 268, 217]]"
PTB7-Th,IHIC,-5.204782608695651,-3.5391891891891896,-5.45,-3.93,0.667,DCB,20.0,CN,25.0,9.41,7.75,0.744,60.9,"[0, 0, 0, 0, 0, 0, 49, 101, 1, 222, 7, 219, 79, 219, 7, 222]","[[0, 0, 0, 0, 0, 0, 49, 101, 1, 222, 7, 219, 79, 219, 7, 222], [0, 0, 0, 0, 0, 0, 101, 49, 1, 222, 7, 219, 79, 219, 7, 222]]"
PTB7-Th,DTPC-IC,-5.204782608695651,-3.5391891891891896,-5.21,-3.97,0.667,DCB,25.0,_,25.0,3.12,3.12,0.863,42.4,"[0, 0, 0, 0, 0, 0, 49, 101, 1, 222, 7, 223, 224, 223, 7, 222]","[[0, 0, 0, 0, 0, 0, 49, 101, 1, 222, 7, 223, 224, 223, 7, 222], [0, 0, 0, 0, 0, 0, 101, 49, 1, 222, 7, 223, 224, 223, 7, 222]]"
PTB7-Th,DTPC-DFIC,-5.204782608695651,-3.5391891891891896,-5.31,-4.1,0.667,DCB,25.0,DIO,25.0,10.21,10.21,0.76,61.3,"[0, 0, 0, 0, 0, 0, 49, 101, 1, 217, 7, 223, 224, 223, 7, 217]","[[0, 0, 0, 0, 0, 0, 49, 101, 1, 217, 7, 223, 224, 223, 7, 217], [0, 0, 0, 0, 0, 0, 101, 49, 1, 217, 7, 223, 224, 223, 7, 217]]"
PBDB-T,DICTF,-5.297714285714285,-3.4170000000000003,-5.67,-3.79,0.833,CB,22.0,DIO,25.0,5.93,5.65,0.93,59.0,"[0, 0, 0, 0, 49, 7, 100, 9, 1, 222, 7, 221, 225, 221, 7, 222]","[[0, 0, 0, 0, 49, 7, 100, 9, 1, 222, 7, 221, 225, 221, 7, 222], [0, 0, 0, 0, 9, 49, 7, 100, 1, 222, 7, 221, 225, 221, 7, 222], [0, 0, 0, 0, 100, 9, 49, 7, 1, 222, 7, 221, 225, 221, 7, 222], [0, 0, 0, 0, 7, 100, 9, 49, 1, 222, 7, 221, 225, 221, 7, 222]]"
PBDB-T,FDICTF,-5.297714285714285,-3.4170000000000003,-5.43,-3.71,0.833,CB,22.0,DIO,25.0,10.06,9.81,0.94,66.0,"[0, 0, 49, 7, 100, 9, 1, 222, 7, 225, 221, 225, 221, 225, 7, 222]","[[0, 0, 49, 7, 100, 9, 1, 222, 7, 225, 221, 225, 221, 225, 7, 222], [0, 0, 9, 49, 7, 100, 1, 222, 7, 225, 221, 225, 221, 225, 7, 222], [0, 0, 100, 9, 49, 7, 1, 222, 7, 225, 221, 225, 221, 225, 7, 222], [0, 0, 7, 100, 9, 49, 1, 222, 7, 225, 221, 225, 221, 225, 7, 222]]"
P3HT,MPU1,-5.057777777777777,-2.989444444444445,-5.81,-3.99,1.0,CF,16.0,DIO,40.0,1.14,1.13,0.64,42.0,"[0, 0, 0, 0, 0, 0, 41, 40, 40, 194, 1, 240, 7, 278, 7, 240]","[[0, 0, 0, 0, 0, 0, 41, 40, 40, 194, 1, 240, 7, 278, 7, 240], [0, 0, 0, 0, 0, 0, 194, 41, 40, 40, 1, 240, 7, 278, 7, 240], [0, 0, 0, 0, 0, 0, 40, 194, 41, 40, 1, 240, 7, 278, 7, 240], [0, 0, 0, 0, 0, 0, 40, 40, 194, 41, 1, 240, 7, 278, 7, 240]]"
P_dFBT-DTS,MPU1,-5.31,-3.33,-5.81,-3.99,1.0,CF,16.0,DIO,40.0,4.17,4.17,1.04,48.0,"[0, 0, 0, 0, 0, 0, 103, 104, 105, 106, 1, 240, 7, 278, 7, 240]","[[0, 0, 0, 0, 0, 0, 103, 104, 105, 106, 1, 240, 7, 278, 7, 240], [0, 0, 0, 0, 0, 0, 106, 103, 104, 105, 1, 240, 7, 278, 7, 240], [0, 0, 0, 0, 0, 0, 105, 106, 103, 104, 1, 240, 7, 278, 7, 240], [0, 0, 0, 0, 0, 0, 104, 105, 106, 103, 1, 240, 7, 278, 7, 240]]"
PBDB-T,IDT-BC6,-5.297714285714285,-3.4170000000000003,-5.55,-3.83,1.0,o-DCB,8.0,_,25.0,2.3,2.28,0.92,44.0,"[0, 0, 49, 7, 100, 9, 1, 222, 366, 7, 219, 221, 219, 7, 366, 222]","[[0, 0, 49, 7, 100, 9, 1, 222, 366, 7, 219, 221, 219, 7, 366, 222], [0, 0, 9, 49, 7, 100, 1, 222, 366, 7, 219, 221, 219, 7, 366, 222], [0, 0, 100, 9, 49, 7, 1, 222, 366, 7, 219, 221, 219, 7, 366, 222], [0, 0, 7, 100, 9, 49, 1, 222, 366, 7, 219, 221, 219, 7, 366, 222]]"
PTB7-Th,ITIC3,-5.204782608695651,-3.5391891891891896,-5.54,-3.9,0.667,CF,10.0,_,25.0,8.09,8.09,0.763,63.1,"[0, 0, 0, 0, 0, 0, 49, 101, 1, 264, 79, 219, 221, 219, 79, 264]","[[0, 0, 0, 0, 0, 0, 49, 101, 1, 264, 79, 219, 221, 219, 79, 264], [0, 0, 0, 0, 0, 0, 101, 49, 1, 264, 79, 219, 221, 219, 79, 264]]"
PTB7-Th,FOIC,-5.204782608695651,-3.5391891891891896,-5.36,-3.92,0.667,CF,10.0,_,25.0,12.0,11.97,0.743,67.1,"[0, 0, 0, 0, 0, 0, 49, 101, 1, 264, 79, 219, 79, 219, 79, 264]","[[0, 0, 0, 0, 0, 0, 49, 101, 1, 264, 79, 219, 79, 219, 79, 264], [0, 0, 0, 0, 0, 0, 101, 49, 1, 264, 79, 219, 79, 219, 79, 264]]"
P3HT,ATT-3,-5.057777777777777,-2.989444444444445,-5.32,-3.4,1.25,CF,16.2,_,130.0,6.26,6.28,0.927,62.0,"[0, 0, 41, 40, 40, 194, 1, 240, 336, 7, 219, 221, 219, 7, 336, 240]","[[0, 0, 41, 40, 40, 194, 1, 240, 336, 7, 219, 221, 219, 7, 336, 240], [0, 0, 194, 41, 40, 40, 1, 240, 336, 7, 219, 221, 219, 7, 336, 240], [0, 0, 40, 194, 41, 40, 1, 240, 336, 7, 219, 221, 219, 7, 336, 240], [0, 0, 40, 40, 194, 41, 1, 240, 336, 7, 219, 221, 219, 7, 336, 240]]"
PBDB-T,IT-O1,-5.297714285714285,-3.4170000000000003,-5.38,-3.33,1.0,CB,10.0,_,130.0,11.6,11.62,0.93,72.0,"[0, 0, 0, 0, 49, 7, 100, 9, 1, 281, 79, 219, 221, 219, 79, 281]","[[0, 0, 0, 0, 49, 7, 100, 9, 1, 281, 79, 219, 221, 219, 79, 281], [0, 0, 0, 0, 9, 49, 7, 100, 1, 281, 79, 219, 221, 219, 79, 281], [0, 0, 0, 0, 100, 9, 49, 7, 1, 281, 79, 219, 221, 219, 79, 281], [0, 0, 0, 0, 7, 100, 9, 49, 1, 281, 79, 219, 221, 219, 79, 281]]"
PBDB-T,IT-O2,-5.297714285714285,-3.4170000000000003,-5.37,-3.31,1.0,CB,10.0,_,130.0,9.3,9.31,0.97,62.6,"[0, 0, 0, 0, 49, 7, 100, 9, 1, 282, 79, 219, 221, 219, 79, 282]","[[0, 0, 0, 0, 49, 7, 100, 9, 1, 282, 79, 219, 221, 219, 79, 282], [0, 0, 0, 0, 9, 49, 7, 100, 1, 282, 79, 219, 221, 219, 79, 282], [0, 0, 0, 0, 100, 9, 49, 7, 1, 282, 79, 219, 221, 219, 79, 282], [0, 0, 0, 0, 7, 100, 9, 49, 1, 282, 79, 219, 221, 219, 79, 282]]"
PBDB-T,IT-O3,-5.297714285714285,-3.4170000000000003,-5.36,-3.31,1.0,CB,10.0,_,130.0,4.9,4.94,0.98,51.4,"[0, 0, 0, 0, 49, 7, 100, 9, 1, 283, 79, 219, 221, 219, 79, 283]","[[0, 0, 0, 0, 49, 7, 100, 9, 1, 283, 79, 219, 221, 219, 79, 283], [0, 0, 0, 0, 9, 49, 7, 100, 1, 283, 79, 219, 221, 219, 79, 283], [0, 0, 0, 0, 100, 9, 49, 7, 1, 283, 79, 219, 221, 219, 79, 283], [0, 0, 0, 0, 7, 100, 9, 49, 1, 283, 79, 219, 221, 219, 79, 283]]"
PBDB-T,IT-O4,-5.297714285714285,-3.4170000000000003,-5.35,-3.3,1.0,CB,10.0,_,130.0,4.2,4.17,0.95,47.9,"[0, 0, 0, 0, 49, 7, 100, 9, 1, 284, 79, 219, 221, 219, 79, 284]","[[0, 0, 0, 0, 49, 7, 100, 9, 1, 284, 79, 219, 221, 219, 79, 284], [0, 0, 0, 0, 9, 49, 7, 100, 1, 284, 79, 219, 221, 219, 79, 284], [0, 0, 0, 0, 100, 9, 49, 7, 1, 284, 79, 219, 221, 219, 79, 284], [0, 0, 0, 0, 7, 100, 9, 49, 1, 284, 79, 219, 221, 219, 79, 284]]"
PBDB-T,NFBDT,-5.297714285714285,-3.4170000000000003,-5.400000000000001,-3.83,1.25,CF,9.0,_,25.0,10.15,9.93,0.863,66.3,"[0, 0, 49, 7, 100, 9, 1, 222, 7, 219, 218, 221, 218, 219, 7, 222]","[[0, 0, 49, 7, 100, 9, 1, 222, 7, 219, 218, 221, 218, 219, 7, 222], [0, 0, 9, 49, 7, 100, 1, 222, 7, 219, 218, 221, 218, 219, 7, 222], [0, 0, 100, 9, 49, 7, 1, 222, 7, 219, 218, 221, 218, 219, 7, 222], [0, 0, 7, 100, 9, 49, 1, 222, 7, 219, 218, 221, 218, 219, 7, 222]]"
PBDB-T,NCBDT,-5.297714285714285,-3.4170000000000003,-5.36,-3.89,1.25,CF,9.0,_,25.0,11.62,11.57,0.835,70.2,"[0, 0, 49, 7, 100, 9, 1, 264, 7, 219, 218, 294, 218, 219, 7, 264]","[[0, 0, 49, 7, 100, 9, 1, 264, 7, 219, 218, 294, 218, 219, 7, 264], [0, 0, 9, 49, 7, 100, 1, 264, 7, 219, 218, 294, 218, 219, 7, 264], [0, 0, 100, 9, 49, 7, 1, 264, 7, 219, 218, 294, 218, 219, 7, 264], [0, 0, 7, 100, 9, 49, 1, 264, 7, 219, 218, 294, 218, 219, 7, 264]]"
PBDB-T,NFBDT,-5.297714285714285,-3.4170000000000003,-5.400000000000001,-3.83,1.25,CF,9.0,_,25.0,10.42,10.41,0.868,67.2,"[0, 0, 49, 7, 100, 9, 1, 222, 7, 219, 218, 221, 218, 219, 7, 222]","[[0, 0, 49, 7, 100, 9, 1, 222, 7, 219, 218, 221, 218, 219, 7, 222], [0, 0, 9, 49, 7, 100, 1, 222, 7, 219, 218, 221, 218, 219, 7, 222], [0, 0, 100, 9, 49, 7, 1, 222, 7, 219, 218, 221, 218, 219, 7, 222], [0, 0, 7, 100, 9, 49, 1, 222, 7, 219, 218, 221, 218, 219, 7, 222]]"