Donor,Acceptor,HOMO_D_eV,LUMO_D_eV,HOMO_A_eV,LUMO_A_eV,D_A_ratio_m_m,solvent,solvent_additive,annealing_temperature,hole_contact_layer,electron_contact_layer,PCE_percent,calc_PCE_percent,Voc_V,FF_percent,Donor_BRICS,Acceptor_BRICS,DA_pair_BRICS,DA_tokenized_BRICS
PDBT-F,IDIC,-5.39,-3.57,-5.706,-4.002666666666667,1.0,CF,DIO,100.0,PEDOT:PSS,PFN-Br,11.02,10.98,0.87,71.5,"[<rdkit.Chem.rdchem.Mol object at 0x7fdd1473d070>, <rdkit.Chem.rdchem.Mol object at 0x7fdd14745c40>, <rdkit.Chem.rdchem.Mol object at 0x7fdd14745d90>, <rdkit.Chem.rdchem.Mol object at 0x7fdd14745620>, <rdkit.Chem.rdchem.Mol object at 0x7fdd14746110>, <rdkit.Chem.rdchem.Mol object at 0x7fdd14746b20>]","[<rdkit.Chem.rdchem.Mol object at 0x7fdd14746730>, <rdkit.Chem.rdchem.Mol object at 0x7fdd147463b0>, <rdkit.Chem.rdchem.Mol object at 0x7fdd14745b60>, <rdkit.Chem.rdchem.Mol object at 0x7fdd14746490>]","[<rdkit.Chem.rdchem.Mol object at 0x7fdd1473d070>, <rdkit.Chem.rdchem.Mol object at 0x7fdd14745c40>, <rdkit.Chem.rdchem.Mol object at 0x7fdd14745d90>, <rdkit.Chem.rdchem.Mol object at 0x7fdd14745620>, <rdkit.Chem.rdchem.Mol object at 0x7fdd14746110>, <rdkit.Chem.rdchem.Mol object at 0x7fdd14746b20>, '.', <rdkit.Chem.rdchem.Mol object at 0x7fdd14746730>, <rdkit.Chem.rdchem.Mol object at 0x7fdd147463b0>, <rdkit.Chem.rdchem.Mol object at 0x7fdd14745b60>, <rdkit.Chem.rdchem.Mol object at 0x7fdd14746490>]","[0, 0, 0, 0, 0, 0, 3968, 3969, 3970, 3971, 3972, 3973, 1, 3974, 3975, 3976, 3977]"
PBDS-T,ITIC,-5.349999999999999,-3.67,-5.574146341463415,-3.915,1.2,CB,DIO,25.0,MoOx,ZnO,10.72,10.72,0.98,60.0,"[<rdkit.Chem.rdchem.Mol object at 0x7fdd147461f0>, <rdkit.Chem.rdchem.Mol object at 0x7fdd14745cb0>, <rdkit.Chem.rdchem.Mol object at 0x7fdd14746500>, <rdkit.Chem.rdchem.Mol object at 0x7fdd14746e30>, <rdkit.Chem.rdchem.Mol object at 0x7fdd14746810>, <rdkit.Chem.rdchem.Mol object at 0x7fdd14746420>]","[<rdkit.Chem.rdchem.Mol object at 0x7fdd14745ee0>, <rdkit.Chem.rdchem.Mol object at 0x7fdd14744c10>, <rdkit.Chem.rdchem.Mol object at 0x7fdd14746030>, <rdkit.Chem.rdchem.Mol object at 0x7fdd147468f0>, <rdkit.Chem.rdchem.Mol object at 0x7fdd14745070>]","[<rdkit.Chem.rdchem.Mol object at 0x7fdd147461f0>, <rdkit.Chem.rdchem.Mol object at 0x7fdd14745cb0>, <rdkit.Chem.rdchem.Mol object at 0x7fdd14746500>, <rdkit.Chem.rdchem.Mol object at 0x7fdd14746e30>, <rdkit.Chem.rdchem.Mol object at 0x7fdd14746810>, <rdkit.Chem.rdchem.Mol object at 0x7fdd14746420>, '.', <rdkit.Chem.rdchem.Mol object at 0x7fdd14745ee0>, <rdkit.Chem.rdchem.Mol object at 0x7fdd14744c10>, <rdkit.Chem.rdchem.Mol object at 0x7fdd14746030>, <rdkit.Chem.rdchem.Mol object at 0x7fdd147468f0>, <rdkit.Chem.rdchem.Mol object at 0x7fdd14745070>]","[0, 0, 0, 0, 0, 3978, 3979, 3980, 3981, 3982, 3983, 1, 3984, 3985, 3986, 3987, 3988]"
PBDS-T,ITIC-F,-5.349999999999999,-3.67,-5.619999999999999,-4.02,1.0,CB,DIO,25.0,MoOx,ZnO,11.19,11.19,0.9,66.7,"[<rdkit.Chem.rdchem.Mol object at 0x7fdd14746a40>, <rdkit.Chem.rdchem.Mol object at 0x7fdd14746dc0>, <rdkit.Chem.rdchem.Mol object at 0x7fdd14746260>, <rdkit.Chem.rdchem.Mol object at 0x7fdd147465e0>, <rdkit.Chem.rdchem.Mol object at 0x7fdd14745bd0>, <rdkit.Chem.rdchem.Mol object at 0x7fdd14745000>]","[<rdkit.Chem.rdchem.Mol object at 0x7fdd14744ac0>, <rdkit.Chem.rdchem.Mol object at 0x7fdd14745a10>, <rdkit.Chem.rdchem.Mol object at 0x7fdd14745700>, <rdkit.Chem.rdchem.Mol object at 0x7fdd147467a0>, <rdkit.Chem.rdchem.Mol object at 0x7fdd14746ea0>]","[<rdkit.Chem.rdchem.Mol object at 0x7fdd14746a40>, <rdkit.Chem.rdchem.Mol object at 0x7fdd14746dc0>, <rdkit.Chem.rdchem.Mol object at 0x7fdd14746260>, <rdkit.Chem.rdchem.Mol object at 0x7fdd147465e0>, <rdkit.Chem.rdchem.Mol object at 0x7fdd14745bd0>, <rdkit.Chem.rdchem.Mol object at 0x7fdd14745000>, '.', <rdkit.Chem.rdchem.Mol object at 0x7fdd14744ac0>, <rdkit.Chem.rdchem.Mol object at 0x7fdd14745a10>, <rdkit.Chem.rdchem.Mol object at 0x7fdd14745700>, <rdkit.Chem.rdchem.Mol object at 0x7fdd147467a0>, <rdkit.Chem.rdchem.Mol object at 0x7fdd14746ea0>]","[0, 0, 0, 0, 0, 3989, 3990, 3991, 3992, 3993, 3994, 1, 3995, 3996, 3997, 3998, 3999]"
PBDS-T,ITIC-Th1,-5.349999999999999,-3.67,-5.720000000000001,-4.065,1.0,CB,DIO,25.0,MoOx,ZnO,12.04,12.04,0.88,70.0,"[<rdkit.Chem.rdchem.Mol object at 0x7fdd14746ff0>, <rdkit.Chem.rdchem.Mol object at 0x7fdd147470d0>, <rdkit.Chem.rdchem.Mol object at 0x7fdd14746f10>, <rdkit.Chem.rdchem.Mol object at 0x7fdd14746ce0>, <rdkit.Chem.rdchem.Mol object at 0x7fdd14745d20>, <rdkit.Chem.rdchem.Mol object at 0x7fdd14746d50>]","[<rdkit.Chem.rdchem.Mol object at 0x7fdd147445f0>, <rdkit.Chem.rdchem.Mol object at 0x7fdd14745230>, <rdkit.Chem.rdchem.Mol object at 0x7fdd14747140>, <rdkit.Chem.rdchem.Mol object at 0x7fdd14745460>, <rdkit.Chem.rdchem.Mol object at 0x7fdd147473e0>]","[<rdkit.Chem.rdchem.Mol object at 0x7fdd14746ff0>, <rdkit.Chem.rdchem.Mol object at 0x7fdd147470d0>, <rdkit.Chem.rdchem.Mol object at 0x7fdd14746f10>, <rdkit.Chem.rdchem.Mol object at 0x7fdd14746ce0>, <rdkit.Chem.rdchem.Mol object at 0x7fdd14745d20>, <rdkit.Chem.rdchem.Mol object at 0x7fdd14746d50>, '.', <rdkit.Chem.rdchem.Mol object at 0x7fdd147445f0>, <rdkit.Chem.rdchem.Mol object at 0x7fdd14745230>, <rdkit.Chem.rdchem.Mol object at 0x7fdd14747140>, <rdkit.Chem.rdchem.Mol object at 0x7fdd14745460>, <rdkit.Chem.rdchem.Mol object at 0x7fdd147473e0>]","[0, 0, 0, 0, 0, 4000, 4001, 4002, 4003, 4004, 4005, 1, 4006, 4007, 4008, 4009, 4010]"
J71,ITDM,-5.353333333333333,-3.4318181818181825,-5.58,-3.82,1.0,CF,_,100.0,PEDOT:PSS,ZrAcAc,12.05,12.05,1.015,70.9,"[<rdkit.Chem.rdchem.Mol object at 0x7fdd14747450>, <rdkit.Chem.rdchem.Mol object at 0x7fdd14746f80>, <rdkit.Chem.rdchem.Mol object at 0x7fdd14746c70>, <rdkit.Chem.rdchem.Mol object at 0x7fdd147474c0>, <rdkit.Chem.rdchem.Mol object at 0x7fdd14744f90>, <rdkit.Chem.rdchem.Mol object at 0x7fdd14747840>]","[<rdkit.Chem.rdchem.Mol object at 0x7fdd14747610>, <rdkit.Chem.rdchem.Mol object at 0x7fdd147460a0>, <rdkit.Chem.rdchem.Mol object at 0x7fdd14745a80>, <rdkit.Chem.rdchem.Mol object at 0x7fdd14747530>, <rdkit.Chem.rdchem.Mol object at 0x7fdd14747680>]","[<rdkit.Chem.rdchem.Mol object at 0x7fdd14747450>, <rdkit.Chem.rdchem.Mol object at 0x7fdd14746f80>, <rdkit.Chem.rdchem.Mol object at 0x7fdd14746c70>, <rdkit.Chem.rdchem.Mol object at 0x7fdd147474c0>, <rdkit.Chem.rdchem.Mol object at 0x7fdd14744f90>, <rdkit.Chem.rdchem.Mol object at 0x7fdd14747840>, '.', <rdkit.Chem.rdchem.Mol object at 0x7fdd14747610>, <rdkit.Chem.rdchem.Mol object at 0x7fdd147460a0>, <rdkit.Chem.rdchem.Mol object at 0x7fdd14745a80>, <rdkit.Chem.rdchem.Mol object at 0x7fdd14747530>, <rdkit.Chem.rdchem.Mol object at 0x7fdd14747680>]","[0, 0, 0, 0, 0, 4011, 4012, 4013, 4014, 4015, 4016, 1, 4017, 4018, 4019, 4020, 4021]"
J71,ITCF,-5.353333333333333,-3.4318181818181825,-5.59,-3.95,1.0,CF,_,100.0,PEDOT:PSS,ZrAcAc,13.25,13.25,0.91,78.8,"[<rdkit.Chem.rdchem.Mol object at 0x7fdd14746ab0>, <rdkit.Chem.rdchem.Mol object at 0x7fdd14747920>, <rdkit.Chem.rdchem.Mol object at 0x7fdd14745f50>, <rdkit.Chem.rdchem.Mol object at 0x7fdd147469d0>, <rdkit.Chem.rdchem.Mol object at 0x7fdd14746c00>, <rdkit.Chem.rdchem.Mol object at 0x7fdd14747d10>]","[<rdkit.Chem.rdchem.Mol object at 0x7fdd14747b50>, <rdkit.Chem.rdchem.Mol object at 0x7fdd14747290>, <rdkit.Chem.rdchem.Mol object at 0x7fdd14745af0>, <rdkit.Chem.rdchem.Mol object at 0x7fdd14747220>, <rdkit.Chem.rdchem.Mol object at 0x7fdd14746960>]","[<rdkit.Chem.rdchem.Mol object at 0x7fdd14746ab0>, <rdkit.Chem.rdchem.Mol object at 0x7fdd14747920>, <rdkit.Chem.rdchem.Mol object at 0x7fdd14745f50>, <rdkit.Chem.rdchem.Mol object at 0x7fdd147469d0>, <rdkit.Chem.rdchem.Mol object at 0x7fdd14746c00>, <rdkit.Chem.rdchem.Mol object at 0x7fdd14747d10>, '.', <rdkit.Chem.rdchem.Mol object at 0x7fdd14747b50>, <rdkit.Chem.rdchem.Mol object at 0x7fdd14747290>, <rdkit.Chem.rdchem.Mol object at 0x7fdd14745af0>, <rdkit.Chem.rdchem.Mol object at 0x7fdd14747220>, <rdkit.Chem.rdchem.Mol object at 0x7fdd14746960>]","[0, 0, 0, 0, 0, 4022, 4023, 4024, 4025, 4026, 4027, 1, 4028, 4029, 4030, 4031, 4032]"
J71,IT-4F,-5.353333333333333,-3.4318181818181825,-5.66875,-4.060416666666667,1.0,CF,_,100.0,PEDOT:PSS,ZrAcAc,11.66,11.67,0.803,74.2,"[<rdkit.Chem.rdchem.Mol object at 0x7fdd14747f40>, <rdkit.Chem.rdchem.Mol object at 0x7fdd14747bc0>, <rdkit.Chem.rdchem.Mol object at 0x7fdd14747ca0>, <rdkit.Chem.rdchem.Mol object at 0x7fdd147466c0>, <rdkit.Chem.rdchem.Mol object at 0x7fdd147476f0>, <rdkit.Chem.rdchem.Mol object at 0x7fdd147477d0>]","[<rdkit.Chem.rdchem.Mol object at 0x7fdd14747370>, <rdkit.Chem.rdchem.Mol object at 0x7fdd14747df0>, <rdkit.Chem.rdchem.Mol object at 0x7fdd14745690>, <rdkit.Chem.rdchem.Mol object at 0x7fdd147446d0>, <rdkit.Chem.rdchem.Mol object at 0x7fdd147543c0>]","[<rdkit.Chem.rdchem.Mol object at 0x7fdd14747f40>, <rdkit.Chem.rdchem.Mol object at 0x7fdd14747bc0>, <rdkit.Chem.rdchem.Mol object at 0x7fdd14747ca0>, <rdkit.Chem.rdchem.Mol object at 0x7fdd147466c0>, <rdkit.Chem.rdchem.Mol object at 0x7fdd147476f0>, <rdkit.Chem.rdchem.Mol object at 0x7fdd147477d0>, '.', <rdkit.Chem.rdchem.Mol object at 0x7fdd14747370>, <rdkit.Chem.rdchem.Mol object at 0x7fdd14747df0>, <rdkit.Chem.rdchem.Mol object at 0x7fdd14745690>, <rdkit.Chem.rdchem.Mol object at 0x7fdd147446d0>, <rdkit.Chem.rdchem.Mol object at 0x7fdd147543c0>]","[0, 0, 0, 0, 0, 4033, 4034, 4035, 4036, 4037, 4038, 1, 4039, 4040, 4041, 4042, 4043]"
2TC-TT-BDTFT,m-ITIC,-5.45,-3.5,-5.526666666666667,-3.8515384615384622,1.0,o-DCB,_,120.0,PEDOT:PSS,PDINO,9.65,9.59,1.06,59.31,"[<rdkit.Chem.rdchem.Mol object at 0x7fdd14754270>, <rdkit.Chem.rdchem.Mol object at 0x7fdd14754040>, <rdkit.Chem.rdchem.Mol object at 0x7fdd147549e0>, <rdkit.Chem.rdchem.Mol object at 0x7fdd14754580>, <rdkit.Chem.rdchem.Mol object at 0x7fdd14755700>, <rdkit.Chem.rdchem.Mol object at 0x7fdd147546d0>, <rdkit.Chem.rdchem.Mol object at 0x7fdd147558c0>, <rdkit.Chem.rdchem.Mol object at 0x7fdd14754d60>, <rdkit.Chem.rdchem.Mol object at 0x7fdd14755bd0>]","[<rdkit.Chem.rdchem.Mol object at 0x7fdd14755ee0>, <rdkit.Chem.rdchem.Mol object at 0x7fdd14755000>, <rdkit.Chem.rdchem.Mol object at 0x7fdd14755690>, <rdkit.Chem.rdchem.Mol object at 0x7fdd14754eb0>, <rdkit.Chem.rdchem.Mol object at 0x7fdd14755230>]","[<rdkit.Chem.rdchem.Mol object at 0x7fdd14754270>, <rdkit.Chem.rdchem.Mol object at 0x7fdd14754040>, <rdkit.Chem.rdchem.Mol object at 0x7fdd147549e0>, <rdkit.Chem.rdchem.Mol object at 0x7fdd14754580>, <rdkit.Chem.rdchem.Mol object at 0x7fdd14755700>, <rdkit.Chem.rdchem.Mol object at 0x7fdd147546d0>, <rdkit.Chem.rdchem.Mol object at 0x7fdd147558c0>, <rdkit.Chem.rdchem.Mol object at 0x7fdd14754d60>, <rdkit.Chem.rdchem.Mol object at 0x7fdd14755bd0>, '.', <rdkit.Chem.rdchem.Mol object at 0x7fdd14755ee0>, <rdkit.Chem.rdchem.Mol object at 0x7fdd14755000>, <rdkit.Chem.rdchem.Mol object at 0x7fdd14755690>, <rdkit.Chem.rdchem.Mol object at 0x7fdd14754eb0>, <rdkit.Chem.rdchem.Mol object at 0x7fdd14755230>]","[0, 0, 4078, 4079, 4080, 4081, 4082, 4083, 4084, 4085, 4086, 1, 4087, 4088, 4089, 4090, 4091]"
2T-TTC-BDTFT,m-ITIC,-5.41,-3.53,-5.526666666666667,-3.8515384615384622,1.0,o-DCB,_,120.0,PEDOT:PSS,PDINO,11.15,11.15,0.97,69.37,"[<rdkit.Chem.rdchem.Mol object at 0x7fdd14755b60>, <rdkit.Chem.rdchem.Mol object at 0x7fdd14754f90>, <rdkit.Chem.rdchem.Mol object at 0x7fdd14754cf0>, <rdkit.Chem.rdchem.Mol object at 0x7fdd14754c80>, <rdkit.Chem.rdchem.Mol object at 0x7fdd147559a0>, <rdkit.Chem.rdchem.Mol object at 0x7fdd147551c0>, <rdkit.Chem.rdchem.Mol object at 0x7fdd14755e70>, <rdkit.Chem.rdchem.Mol object at 0x7fdd14756030>, <rdkit.Chem.rdchem.Mol object at 0x7fdd14756260>]","[<rdkit.Chem.rdchem.Mol object at 0x7fdd14756730>, <rdkit.Chem.rdchem.Mol object at 0x7fdd147542e0>, <rdkit.Chem.rdchem.Mol object at 0x7fdd14755d90>, <rdkit.Chem.rdchem.Mol object at 0x7fdd14755cb0>, <rdkit.Chem.rdchem.Mol object at 0x7fdd14755770>]","[<rdkit.Chem.rdchem.Mol object at 0x7fdd14755b60>, <rdkit.Chem.rdchem.Mol object at 0x7fdd14754f90>, <rdkit.Chem.rdchem.Mol object at 0x7fdd14754cf0>, <rdkit.Chem.rdchem.Mol object at 0x7fdd14754c80>, <rdkit.Chem.rdchem.Mol object at 0x7fdd147559a0>, <rdkit.Chem.rdchem.Mol object at 0x7fdd147551c0>, <rdkit.Chem.rdchem.Mol object at 0x7fdd14755e70>, <rdkit.Chem.rdchem.Mol object at 0x7fdd14756030>, <rdkit.Chem.rdchem.Mol object at 0x7fdd14756260>, '.', <rdkit.Chem.rdchem.Mol object at 0x7fdd14756730>, <rdkit.Chem.rdchem.Mol object at 0x7fdd147542e0>, <rdkit.Chem.rdchem.Mol object at 0x7fdd14755d90>, <rdkit.Chem.rdchem.Mol object at 0x7fdd14755cb0>, <rdkit.Chem.rdchem.Mol object at 0x7fdd14755770>]","[0, 0, 4092, 4093, 4094, 4095, 4096, 4097, 4098, 4099, 4100, 1, 4101, 4102, 4103, 4104, 4105]"
PTB7-Th,ACS8,-5.204782608695651,-3.5391891891891896,-5.54,-4.05,0.5,Toluene,_,25.0,MoOx,PFN,9.9,9.92,0.75,58.8,"[<rdkit.Chem.rdchem.Mol object at 0x7fdd14747300>, <rdkit.Chem.rdchem.Mol object at 0x7fdd147545f0>, <rdkit.Chem.rdchem.Mol object at 0x7fdd14754970>, <rdkit.Chem.rdchem.Mol object at 0x7fdd14754900>, <rdkit.Chem.rdchem.Mol object at 0x7fdd14755fc0>, <rdkit.Chem.rdchem.Mol object at 0x7fdd14755e00>, <rdkit.Chem.rdchem.Mol object at 0x7fdd14756570>]","[<rdkit.Chem.rdchem.Mol object at 0x7fdd14746880>, <rdkit.Chem.rdchem.Mol object at 0x7fdd14756110>, <rdkit.Chem.rdchem.Mol object at 0x7fdd147565e0>, <rdkit.Chem.rdchem.Mol object at 0x7fdd14755380>, <rdkit.Chem.rdchem.Mol object at 0x7fdd14754120>, <rdkit.Chem.rdchem.Mol object at 0x7fdd14756180>, <rdkit.Chem.rdchem.Mol object at 0x7fdd14756650>, <rdkit.Chem.rdchem.Mol object at 0x7fdd14756960>]","[<rdkit.Chem.rdchem.Mol object at 0x7fdd14747300>, <rdkit.Chem.rdchem.Mol object at 0x7fdd147545f0>, <rdkit.Chem.rdchem.Mol object at 0x7fdd14754970>, <rdkit.Chem.rdchem.Mol object at 0x7fdd14754900>, <rdkit.Chem.rdchem.Mol object at 0x7fdd14755fc0>, <rdkit.Chem.rdchem.Mol object at 0x7fdd14755e00>, <rdkit.Chem.rdchem.Mol object at 0x7fdd14756570>, '.', <rdkit.Chem.rdchem.Mol object at 0x7fdd14746880>, <rdkit.Chem.rdchem.Mol object at 0x7fdd14756110>, <rdkit.Chem.rdchem.Mol object at 0x7fdd147565e0>, <rdkit.Chem.rdchem.Mol object at 0x7fdd14755380>, <rdkit.Chem.rdchem.Mol object at 0x7fdd14754120>, <rdkit.Chem.rdchem.Mol object at 0x7fdd14756180>, <rdkit.Chem.rdchem.Mol object at 0x7fdd14756650>, <rdkit.Chem.rdchem.Mol object at 0x7fdd14756960>]","[0, 4106, 4107, 4108, 4109, 4110, 4111, 4112, 1, 4113, 4114, 4115, 4116, 4117, 4118, 4119, 4120]"
PB24-3TDC,ITIC-Th,-5.36,-3.58,-5.673333333333334,-3.908888888888889,0.667,CB,DIO,25.0,PEDOT:PSS,C60-bissalt,10.3,10.3,0.902,68.0,"[<rdkit.Chem.rdchem.Mol object at 0x7fdd147563b0>, <rdkit.Chem.rdchem.Mol object at 0x7fdd14756340>, <rdkit.Chem.rdchem.Mol object at 0x7fdd14755620>, <rdkit.Chem.rdchem.Mol object at 0x7fdd14755850>, <rdkit.Chem.rdchem.Mol object at 0x7fdd14754660>, <rdkit.Chem.rdchem.Mol object at 0x7fdd147553f0>, <rdkit.Chem.rdchem.Mol object at 0x7fdd14755f50>, <rdkit.Chem.rdchem.Mol object at 0x7fdd147561f0>, <rdkit.Chem.rdchem.Mol object at 0x7fdd14756c70>]","[<rdkit.Chem.rdchem.Mol object at 0x7fdd14756420>, <rdkit.Chem.rdchem.Mol object at 0x7fdd147566c0>, <rdkit.Chem.rdchem.Mol object at 0x7fdd14755d20>, <rdkit.Chem.rdchem.Mol object at 0x7fdd14754c10>, <rdkit.Chem.rdchem.Mol object at 0x7fdd14755a10>]","[<rdkit.Chem.rdchem.Mol object at 0x7fdd147563b0>, <rdkit.Chem.rdchem.Mol object at 0x7fdd14756340>, <rdkit.Chem.rdchem.Mol object at 0x7fdd14755620>, <rdkit.Chem.rdchem.Mol object at 0x7fdd14755850>, <rdkit.Chem.rdchem.Mol object at 0x7fdd14754660>, <rdkit.Chem.rdchem.Mol object at 0x7fdd147553f0>, <rdkit.Chem.rdchem.Mol object at 0x7fdd14755f50>, <rdkit.Chem.rdchem.Mol object at 0x7fdd147561f0>, <rdkit.Chem.rdchem.Mol object at 0x7fdd14756c70>, '.', <rdkit.Chem.rdchem.Mol object at 0x7fdd14756420>, <rdkit.Chem.rdchem.Mol object at 0x7fdd147566c0>, <rdkit.Chem.rdchem.Mol object at 0x7fdd14755d20>, <rdkit.Chem.rdchem.Mol object at 0x7fdd14754c10>, <rdkit.Chem.rdchem.Mol object at 0x7fdd14755a10>]","[0, 0, 4121, 4122, 4123, 4124, 4125, 4126, 4127, 4128, 4129, 1, 4130, 4131, 4132, 4133, 4134]"
PB68-3TDC,ITIC-Th,-5.41,-3.57,-5.673333333333334,-3.908888888888889,0.667,CB,DIO,25.0,PEDOT:PSS,C60-bissalt,7.88,7.88,0.994,65.0,"[<rdkit.Chem.rdchem.Mol object at 0x7fdd14756b20>, <rdkit.Chem.rdchem.Mol object at 0x7fdd14756ab0>, <rdkit.Chem.rdchem.Mol object at 0x7fdd14756ce0>, <rdkit.Chem.rdchem.Mol object at 0x7fdd147568f0>, <rdkit.Chem.rdchem.Mol object at 0x7fdd14756490>, <rdkit.Chem.rdchem.Mol object at 0x7fdd14755c40>, <rdkit.Chem.rdchem.Mol object at 0x7fdd147562d0>, <rdkit.Chem.rdchem.Mol object at 0x7fdd147557e0>, <rdkit.Chem.rdchem.Mol object at 0x7fdd14757290>]","[<rdkit.Chem.rdchem.Mol object at 0x7fdd14756f80>, <rdkit.Chem.rdchem.Mol object at 0x7fdd14756a40>, <rdkit.Chem.rdchem.Mol object at 0x7fdd14755af0>, <rdkit.Chem.rdchem.Mol object at 0x7fdd14756500>, <rdkit.Chem.rdchem.Mol object at 0x7fdd14754a50>]","[<rdkit.Chem.rdchem.Mol object at 0x7fdd14756b20>, <rdkit.Chem.rdchem.Mol object at 0x7fdd14756ab0>, <rdkit.Chem.rdchem.Mol object at 0x7fdd14756ce0>, <rdkit.Chem.rdchem.Mol object at 0x7fdd147568f0>, <rdkit.Chem.rdchem.Mol object at 0x7fdd14756490>, <rdkit.Chem.rdchem.Mol object at 0x7fdd14755c40>, <rdkit.Chem.rdchem.Mol object at 0x7fdd147562d0>, <rdkit.Chem.rdchem.Mol object at 0x7fdd147557e0>, <rdkit.Chem.rdchem.Mol object at 0x7fdd14757290>, '.', <rdkit.Chem.rdchem.Mol object at 0x7fdd14756f80>, <rdkit.Chem.rdchem.Mol object at 0x7fdd14756a40>, <rdkit.Chem.rdchem.Mol object at 0x7fdd14755af0>, <rdkit.Chem.rdchem.Mol object at 0x7fdd14756500>, <rdkit.Chem.rdchem.Mol object at 0x7fdd14754a50>]","[0, 0, 4135, 4136, 4137, 4138, 4139, 4140, 4141, 4142, 4143, 1, 4144, 4145, 4146, 4147, 4148]"
PBDB-T,IDNO-IDT,-5.297714285714285,-3.4170000000000003,-5.45,-3.65,1.0,CB,_,140.0,PEDOT:PSS,Ca,1.1,0.94,1.03,34.47,"[<rdkit.Chem.rdchem.Mol object at 0x7fdd14747a70>, <rdkit.Chem.rdchem.Mol object at 0x7fdd14756ff0>, <rdkit.Chem.rdchem.Mol object at 0x7fdd14755070>, <rdkit.Chem.rdchem.Mol object at 0x7fdd14757370>, <rdkit.Chem.rdchem.Mol object at 0x7fdd14757df0>]","[<rdkit.Chem.rdchem.Mol object at 0x7fdd14757ae0>, <rdkit.Chem.rdchem.Mol object at 0x7fdd14757990>, <rdkit.Chem.rdchem.Mol object at 0x7fdd14757d80>]","[<rdkit.Chem.rdchem.Mol object at 0x7fdd14747a70>, <rdkit.Chem.rdchem.Mol object at 0x7fdd14756ff0>, <rdkit.Chem.rdchem.Mol object at 0x7fdd14755070>, <rdkit.Chem.rdchem.Mol object at 0x7fdd14757370>, <rdkit.Chem.rdchem.Mol object at 0x7fdd14757df0>, '.', <rdkit.Chem.rdchem.Mol object at 0x7fdd14757ae0>, <rdkit.Chem.rdchem.Mol object at 0x7fdd14757990>, <rdkit.Chem.rdchem.Mol object at 0x7fdd14757d80>]","[0, 0, 0, 0, 0, 0, 0, 0, 4149, 4150, 4151, 4152, 4153, 1, 4154, 4155, 4156]"
PBDB-T,IM1-IDT,-5.297714285714285,-3.4170000000000003,-5.46,-4.02,0.667,CB,_,140.0,PEDOT:PSS,Ca,1.62,1.32,0.55,47.41,"[<rdkit.Chem.rdchem.Mol object at 0x7fdd14757680>, <rdkit.Chem.rdchem.Mol object at 0x7fdd147552a0>, <rdkit.Chem.rdchem.Mol object at 0x7fdd14756b90>, <rdkit.Chem.rdchem.Mol object at 0x7fdd14757300>, <rdkit.Chem.rdchem.Mol object at 0x7fdd1475c2e0>]","[<rdkit.Chem.rdchem.Mol object at 0x7fdd14757e60>, <rdkit.Chem.rdchem.Mol object at 0x7fdd14757220>, <rdkit.Chem.rdchem.Mol object at 0x7fdd147571b0>, <rdkit.Chem.rdchem.Mol object at 0x7fdd14756d50>]","[<rdkit.Chem.rdchem.Mol object at 0x7fdd14757680>, <rdkit.Chem.rdchem.Mol object at 0x7fdd147552a0>, <rdkit.Chem.rdchem.Mol object at 0x7fdd14756b90>, <rdkit.Chem.rdchem.Mol object at 0x7fdd14757300>, <rdkit.Chem.rdchem.Mol object at 0x7fdd1475c2e0>, '.', <rdkit.Chem.rdchem.Mol object at 0x7fdd14757e60>, <rdkit.Chem.rdchem.Mol object at 0x7fdd14757220>, <rdkit.Chem.rdchem.Mol object at 0x7fdd147571b0>, <rdkit.Chem.rdchem.Mol object at 0x7fdd14756d50>]","[0, 0, 0, 0, 0, 0, 0, 4157, 4158, 4159, 4160, 4161, 1, 4162, 4163, 4164, 4165]"