Donor,Acceptor,HOMO_D_eV,LUMO_D_eV,HOMO_A_eV,LUMO_A_eV,D_A_ratio_m_m,solvent,solvent_additive,annealing_temperature,hole_contact_layer,electron_contact_layer,PCE_percent,calc_PCE_percent,Voc_V,FF_percent,Donor_BRICS,Acceptor_BRICS,DA_pair_BRICS,DA_tokenized_BRICS
PBDS-TZ,IT-4F,-5.41,-3.46,-5.66875,-4.060416666666667,1.0,CB,DIO,90.0,MoOx,ZnO,12.01,11.78,0.804,73.1,"[<rdkit.Chem.rdchem.Mol object at 0x7fdd147235a0>, <rdkit.Chem.rdchem.Mol object at 0x7fdd14730430>, <rdkit.Chem.rdchem.Mol object at 0x7fdd147200b0>, <rdkit.Chem.rdchem.Mol object at 0x7fdd147307b0>, <rdkit.Chem.rdchem.Mol object at 0x7fdd14730740>, <rdkit.Chem.rdchem.Mol object at 0x7fdd14730c10>]","[<rdkit.Chem.rdchem.Mol object at 0x7fdd14720f90>, <rdkit.Chem.rdchem.Mol object at 0x7fdd14730f20>, <rdkit.Chem.rdchem.Mol object at 0x7fdd14721f50>, <rdkit.Chem.rdchem.Mol object at 0x7fdd14731150>, <rdkit.Chem.rdchem.Mol object at 0x7fdd147310e0>]","[<rdkit.Chem.rdchem.Mol object at 0x7fdd147235a0>, <rdkit.Chem.rdchem.Mol object at 0x7fdd14730430>, <rdkit.Chem.rdchem.Mol object at 0x7fdd147200b0>, <rdkit.Chem.rdchem.Mol object at 0x7fdd147307b0>, <rdkit.Chem.rdchem.Mol object at 0x7fdd14730740>, <rdkit.Chem.rdchem.Mol object at 0x7fdd14730c10>, '.', <rdkit.Chem.rdchem.Mol object at 0x7fdd14720f90>, <rdkit.Chem.rdchem.Mol object at 0x7fdd14730f20>, <rdkit.Chem.rdchem.Mol object at 0x7fdd14721f50>, <rdkit.Chem.rdchem.Mol object at 0x7fdd14731150>, <rdkit.Chem.rdchem.Mol object at 0x7fdd147310e0>]","[0, 0, 0, 0, 0, 3641, 3642, 3643, 3644, 3645, 3646, 1, 3647, 3648, 3649, 3650, 3651]"
J71,BTA701,-5.353333333333333,-3.4318181818181825,-5.27,-2.83,1.0,CF,_,120.0,PEDOT:PSS,Ca,0.07,0.07,1.32,25.0,"[<rdkit.Chem.rdchem.Mol object at 0x7fdd14721fc0>, <rdkit.Chem.rdchem.Mol object at 0x7fdd14730eb0>, <rdkit.Chem.rdchem.Mol object at 0x7fdd147306d0>, <rdkit.Chem.rdchem.Mol object at 0x7fdd147233e0>, <rdkit.Chem.rdchem.Mol object at 0x7fdd14730a50>, <rdkit.Chem.rdchem.Mol object at 0x7fdd14730cf0>]","[<rdkit.Chem.rdchem.Mol object at 0x7fdd14722d50>, <rdkit.Chem.rdchem.Mol object at 0x7fdd14730970>, <rdkit.Chem.rdchem.Mol object at 0x7fdd14723140>, <rdkit.Chem.rdchem.Mol object at 0x7fdd14730b30>, <rdkit.Chem.rdchem.Mol object at 0x7fdd14732c00>, <rdkit.Chem.rdchem.Mol object at 0x7fdd14732b20>]","[<rdkit.Chem.rdchem.Mol object at 0x7fdd14721fc0>, <rdkit.Chem.rdchem.Mol object at 0x7fdd14730eb0>, <rdkit.Chem.rdchem.Mol object at 0x7fdd147306d0>, <rdkit.Chem.rdchem.Mol object at 0x7fdd147233e0>, <rdkit.Chem.rdchem.Mol object at 0x7fdd14730a50>, <rdkit.Chem.rdchem.Mol object at 0x7fdd14730cf0>, '.', <rdkit.Chem.rdchem.Mol object at 0x7fdd14722d50>, <rdkit.Chem.rdchem.Mol object at 0x7fdd14730970>, <rdkit.Chem.rdchem.Mol object at 0x7fdd14723140>, <rdkit.Chem.rdchem.Mol object at 0x7fdd14730b30>, <rdkit.Chem.rdchem.Mol object at 0x7fdd14732c00>, <rdkit.Chem.rdchem.Mol object at 0x7fdd14732b20>]","[0, 0, 0, 0, 3652, 3653, 3654, 3655, 3656, 3657, 1, 3658, 3659, 3660, 3661, 3662, 3663]"
J71,BTA3,-5.353333333333333,-3.4318181818181825,-5.415,-3.445,1.0,CF,_,150.0,PEDOT:PSS,Ca,8.6,8.6,1.2,69.0,"[<rdkit.Chem.rdchem.Mol object at 0x7fdd14723df0>, <rdkit.Chem.rdchem.Mol object at 0x7fdd147326c0>, <rdkit.Chem.rdchem.Mol object at 0x7fdd14732960>, <rdkit.Chem.rdchem.Mol object at 0x7fdd14732ab0>, <rdkit.Chem.rdchem.Mol object at 0x7fdd14732420>, <rdkit.Chem.rdchem.Mol object at 0x7fdd14731d20>]","[<rdkit.Chem.rdchem.Mol object at 0x7fdd14722f10>, <rdkit.Chem.rdchem.Mol object at 0x7fdd14723a70>, <rdkit.Chem.rdchem.Mol object at 0x7fdd14732260>, <rdkit.Chem.rdchem.Mol object at 0x7fdd14732ce0>, <rdkit.Chem.rdchem.Mol object at 0x7fdd14732f10>]","[<rdkit.Chem.rdchem.Mol object at 0x7fdd14723df0>, <rdkit.Chem.rdchem.Mol object at 0x7fdd147326c0>, <rdkit.Chem.rdchem.Mol object at 0x7fdd14732960>, <rdkit.Chem.rdchem.Mol object at 0x7fdd14732ab0>, <rdkit.Chem.rdchem.Mol object at 0x7fdd14732420>, <rdkit.Chem.rdchem.Mol object at 0x7fdd14731d20>, '.', <rdkit.Chem.rdchem.Mol object at 0x7fdd14722f10>, <rdkit.Chem.rdchem.Mol object at 0x7fdd14723a70>, <rdkit.Chem.rdchem.Mol object at 0x7fdd14732260>, <rdkit.Chem.rdchem.Mol object at 0x7fdd14732ce0>, <rdkit.Chem.rdchem.Mol object at 0x7fdd14732f10>]","[0, 0, 0, 0, 0, 3664, 3665, 3666, 3667, 3668, 3669, 1, 3670, 3671, 3672, 3673, 3674]"
J71,BTA703,-5.353333333333333,-3.4318181818181825,-5.5,-3.9,2.0,CF,_,120.0,PEDOT:PSS,Ca,1.21,1.21,0.85,40.0,"[<rdkit.Chem.rdchem.Mol object at 0x7fdd14723680>, <rdkit.Chem.rdchem.Mol object at 0x7fdd14732c70>, <rdkit.Chem.rdchem.Mol object at 0x7fdd14730200>, <rdkit.Chem.rdchem.Mol object at 0x7fdd14730ac0>, <rdkit.Chem.rdchem.Mol object at 0x7fdd147304a0>, <rdkit.Chem.rdchem.Mol object at 0x7fdd14731380>]","[<rdkit.Chem.rdchem.Mol object at 0x7fdd14731540>, <rdkit.Chem.rdchem.Mol object at 0x7fdd14730890>, <rdkit.Chem.rdchem.Mol object at 0x7fdd14732d50>, <rdkit.Chem.rdchem.Mol object at 0x7fdd147309e0>, <rdkit.Chem.rdchem.Mol object at 0x7fdd14731310>, <rdkit.Chem.rdchem.Mol object at 0x7fdd147338b0>, <rdkit.Chem.rdchem.Mol object at 0x7fdd147337d0>]","[<rdkit.Chem.rdchem.Mol object at 0x7fdd14723680>, <rdkit.Chem.rdchem.Mol object at 0x7fdd14732c70>, <rdkit.Chem.rdchem.Mol object at 0x7fdd14730200>, <rdkit.Chem.rdchem.Mol object at 0x7fdd14730ac0>, <rdkit.Chem.rdchem.Mol object at 0x7fdd147304a0>, <rdkit.Chem.rdchem.Mol object at 0x7fdd14731380>, '.', <rdkit.Chem.rdchem.Mol object at 0x7fdd14731540>, <rdkit.Chem.rdchem.Mol object at 0x7fdd14730890>, <rdkit.Chem.rdchem.Mol object at 0x7fdd14732d50>, <rdkit.Chem.rdchem.Mol object at 0x7fdd147309e0>, <rdkit.Chem.rdchem.Mol object at 0x7fdd14731310>, <rdkit.Chem.rdchem.Mol object at 0x7fdd147338b0>, <rdkit.Chem.rdchem.Mol object at 0x7fdd147337d0>]","[0, 0, 0, 3675, 3676, 3677, 3678, 3679, 3680, 1, 3681, 3682, 3683, 3684, 3685, 3686, 3687]"
PTB7-Th,Py-1,-5.204782608695651,-3.5391891891891896,-5.79,-3.76,0.667,CF,_,25.0,MoOx,ZnO,5.88,5.82,0.74,65.0,"[<rdkit.Chem.rdchem.Mol object at 0x7fdd147336f0>, <rdkit.Chem.rdchem.Mol object at 0x7fdd14733840>, <rdkit.Chem.rdchem.Mol object at 0x7fdd14733370>, <rdkit.Chem.rdchem.Mol object at 0x7fdd14733450>, <rdkit.Chem.rdchem.Mol object at 0x7fdd14731850>, <rdkit.Chem.rdchem.Mol object at 0x7fdd14733220>, <rdkit.Chem.rdchem.Mol object at 0x7fdd14732a40>]","[<rdkit.Chem.rdchem.Mol object at 0x7fdd14733290>, <rdkit.Chem.rdchem.Mol object at 0x7fdd14732490>, <rdkit.Chem.rdchem.Mol object at 0x7fdd14732500>, <rdkit.Chem.rdchem.Mol object at 0x7fdd14733300>, <rdkit.Chem.rdchem.Mol object at 0x7fdd14730510>]","[<rdkit.Chem.rdchem.Mol object at 0x7fdd147336f0>, <rdkit.Chem.rdchem.Mol object at 0x7fdd14733840>, <rdkit.Chem.rdchem.Mol object at 0x7fdd14733370>, <rdkit.Chem.rdchem.Mol object at 0x7fdd14733450>, <rdkit.Chem.rdchem.Mol object at 0x7fdd14731850>, <rdkit.Chem.rdchem.Mol object at 0x7fdd14733220>, <rdkit.Chem.rdchem.Mol object at 0x7fdd14732a40>, '.', <rdkit.Chem.rdchem.Mol object at 0x7fdd14733290>, <rdkit.Chem.rdchem.Mol object at 0x7fdd14732490>, <rdkit.Chem.rdchem.Mol object at 0x7fdd14732500>, <rdkit.Chem.rdchem.Mol object at 0x7fdd14733300>, <rdkit.Chem.rdchem.Mol object at 0x7fdd14730510>]","[0, 0, 0, 0, 3688, 3689, 3690, 3691, 3692, 3693, 3694, 1, 3695, 3696, 3697, 3698, 3699]"
PTB7-Th,Py-2,-5.204782608695651,-3.5391891891891896,-5.83,-3.78,1.0,CF,_,25.0,MoOx,ZnO,3.47,3.41,0.75,47.0,"[<rdkit.Chem.rdchem.Mol object at 0x7fdd14732b90>, <rdkit.Chem.rdchem.Mol object at 0x7fdd14732030>, <rdkit.Chem.rdchem.Mol object at 0x7fdd14731f50>, <rdkit.Chem.rdchem.Mol object at 0x7fdd14731fc0>, <rdkit.Chem.rdchem.Mol object at 0x7fdd14731230>, <rdkit.Chem.rdchem.Mol object at 0x7fdd14732650>, <rdkit.Chem.rdchem.Mol object at 0x7fdd14731d90>]","[<rdkit.Chem.rdchem.Mol object at 0x7fdd147335a0>, <rdkit.Chem.rdchem.Mol object at 0x7fdd14731e70>, <rdkit.Chem.rdchem.Mol object at 0x7fdd14733680>, <rdkit.Chem.rdchem.Mol object at 0x7fdd14732730>, <rdkit.Chem.rdchem.Mol object at 0x7fdd14731690>]","[<rdkit.Chem.rdchem.Mol object at 0x7fdd14732b90>, <rdkit.Chem.rdchem.Mol object at 0x7fdd14732030>, <rdkit.Chem.rdchem.Mol object at 0x7fdd14731f50>, <rdkit.Chem.rdchem.Mol object at 0x7fdd14731fc0>, <rdkit.Chem.rdchem.Mol object at 0x7fdd14731230>, <rdkit.Chem.rdchem.Mol object at 0x7fdd14732650>, <rdkit.Chem.rdchem.Mol object at 0x7fdd14731d90>, '.', <rdkit.Chem.rdchem.Mol object at 0x7fdd147335a0>, <rdkit.Chem.rdchem.Mol object at 0x7fdd14731e70>, <rdkit.Chem.rdchem.Mol object at 0x7fdd14733680>, <rdkit.Chem.rdchem.Mol object at 0x7fdd14732730>, <rdkit.Chem.rdchem.Mol object at 0x7fdd14731690>]","[0, 0, 0, 0, 3700, 3701, 3702, 3703, 3704, 3705, 3706, 1, 3707, 3708, 3709, 3710, 3711]"
PBB-T,IT-2F,-5.4,-3.3,-5.665,-4.095,0.833,CB,_,150.0,PEDOT:PSS,PDINO,13.3,13.31,0.91,70.0,"[<rdkit.Chem.rdchem.Mol object at 0x7fdd14732880>, <rdkit.Chem.rdchem.Mol object at 0x7fdd14731b60>, <rdkit.Chem.rdchem.Mol object at 0x7fdd147315b0>, <rdkit.Chem.rdchem.Mol object at 0x7fdd147333e0>, <rdkit.Chem.rdchem.Mol object at 0x7fdd147331b0>, <rdkit.Chem.rdchem.Mol object at 0x7fdd147317e0>, <rdkit.Chem.rdchem.Mol object at 0x7fdd14731930>, <rdkit.Chem.rdchem.Mol object at 0x7fdd147305f0>]","[<rdkit.Chem.rdchem.Mol object at 0x7fdd147314d0>, <rdkit.Chem.rdchem.Mol object at 0x7fdd147320a0>, <rdkit.Chem.rdchem.Mol object at 0x7fdd147327a0>, <rdkit.Chem.rdchem.Mol object at 0x7fdd14731c40>, <rdkit.Chem.rdchem.Mol object at 0x7fdd14732ff0>]","[<rdkit.Chem.rdchem.Mol object at 0x7fdd14732880>, <rdkit.Chem.rdchem.Mol object at 0x7fdd14731b60>, <rdkit.Chem.rdchem.Mol object at 0x7fdd147315b0>, <rdkit.Chem.rdchem.Mol object at 0x7fdd147333e0>, <rdkit.Chem.rdchem.Mol object at 0x7fdd147331b0>, <rdkit.Chem.rdchem.Mol object at 0x7fdd147317e0>, <rdkit.Chem.rdchem.Mol object at 0x7fdd14731930>, <rdkit.Chem.rdchem.Mol object at 0x7fdd147305f0>, '.', <rdkit.Chem.rdchem.Mol object at 0x7fdd147314d0>, <rdkit.Chem.rdchem.Mol object at 0x7fdd147320a0>, <rdkit.Chem.rdchem.Mol object at 0x7fdd147327a0>, <rdkit.Chem.rdchem.Mol object at 0x7fdd14731c40>, <rdkit.Chem.rdchem.Mol object at 0x7fdd14732ff0>]","[0, 0, 0, 3712, 3713, 3714, 3715, 3716, 3717, 3718, 3719, 1, 3720, 3721, 3722, 3723, 3724]"
PFBDB-T,C8-ITIC,-5.47,-3.46,-5.63,-3.91,0.8,CB,_,25.0,MoOx,ZnO,12.5,12.57,0.93,69.0,"[<rdkit.Chem.rdchem.Mol object at 0x7fdd14731bd0>, <rdkit.Chem.rdchem.Mol object at 0x7fdd147329d0>, <rdkit.Chem.rdchem.Mol object at 0x7fdd14730040>, <rdkit.Chem.rdchem.Mol object at 0x7fdd14732810>, <rdkit.Chem.rdchem.Mol object at 0x7fdd14732dc0>, <rdkit.Chem.rdchem.Mol object at 0x7fdd14733a00>]","[<rdkit.Chem.rdchem.Mol object at 0x7fdd14733c30>, <rdkit.Chem.rdchem.Mol object at 0x7fdd14732110>, <rdkit.Chem.rdchem.Mol object at 0x7fdd147330d0>, <rdkit.Chem.rdchem.Mol object at 0x7fdd147311c0>, <rdkit.Chem.rdchem.Mol object at 0x7fdd14733140>]","[<rdkit.Chem.rdchem.Mol object at 0x7fdd14731bd0>, <rdkit.Chem.rdchem.Mol object at 0x7fdd147329d0>, <rdkit.Chem.rdchem.Mol object at 0x7fdd14730040>, <rdkit.Chem.rdchem.Mol object at 0x7fdd14732810>, <rdkit.Chem.rdchem.Mol object at 0x7fdd14732dc0>, <rdkit.Chem.rdchem.Mol object at 0x7fdd14733a00>, '.', <rdkit.Chem.rdchem.Mol object at 0x7fdd14733c30>, <rdkit.Chem.rdchem.Mol object at 0x7fdd14732110>, <rdkit.Chem.rdchem.Mol object at 0x7fdd147330d0>, <rdkit.Chem.rdchem.Mol object at 0x7fdd147311c0>, <rdkit.Chem.rdchem.Mol object at 0x7fdd14733140>]","[0, 0, 0, 0, 0, 3725, 3726, 3727, 3728, 3729, 3730, 1, 3731, 3732, 3733, 3734, 3735]"
P_TBTT-BTT,ICz-Rd2,-5.15,-3.58,-5.59,-3.88,1.0,CF,_,40.0,PEDOT:PSS,PFN,7.88,7.88,1.04,54.0,"[<rdkit.Chem.rdchem.Mol object at 0x7fdd14732570>, <rdkit.Chem.rdchem.Mol object at 0x7fdd14733610>, <rdkit.Chem.rdchem.Mol object at 0x7fdd14730d60>, <rdkit.Chem.rdchem.Mol object at 0x7fdd14731460>, <rdkit.Chem.rdchem.Mol object at 0x7fdd14732ea0>]","[<rdkit.Chem.rdchem.Mol object at 0x7fdd14732f80>, <rdkit.Chem.rdchem.Mol object at 0x7fdd147303c0>, <rdkit.Chem.rdchem.Mol object at 0x7fdd14733920>, <rdkit.Chem.rdchem.Mol object at 0x7fdd14733d10>, <rdkit.Chem.rdchem.Mol object at 0x7fdd14731620>, <rdkit.Chem.rdchem.Mol object at 0x7fdd14731a10>]","[<rdkit.Chem.rdchem.Mol object at 0x7fdd14732570>, <rdkit.Chem.rdchem.Mol object at 0x7fdd14733610>, <rdkit.Chem.rdchem.Mol object at 0x7fdd14730d60>, <rdkit.Chem.rdchem.Mol object at 0x7fdd14731460>, <rdkit.Chem.rdchem.Mol object at 0x7fdd14732ea0>, '.', <rdkit.Chem.rdchem.Mol object at 0x7fdd14732f80>, <rdkit.Chem.rdchem.Mol object at 0x7fdd147303c0>, <rdkit.Chem.rdchem.Mol object at 0x7fdd14733920>, <rdkit.Chem.rdchem.Mol object at 0x7fdd14733d10>, <rdkit.Chem.rdchem.Mol object at 0x7fdd14731620>, <rdkit.Chem.rdchem.Mol object at 0x7fdd14731a10>]","[0, 0, 0, 0, 0, 3736, 3737, 3738, 3739, 3740, 1, 3741, 3742, 3743, 3744, 3745, 3746]"
P_TBTT-BTT,ICz-RdCN2,-5.15,-3.58,-5.58,-3.98,1.0,CF,_,40.0,PEDOT:PSS,PFN,9.76,9.76,1.01,62.0,"[<rdkit.Chem.rdchem.Mol object at 0x7fdd14730f90>, <rdkit.Chem.rdchem.Mol object at 0x7fdd147323b0>, <rdkit.Chem.rdchem.Mol object at 0x7fdd147328f0>, <rdkit.Chem.rdchem.Mol object at 0x7fdd14731cb0>, <rdkit.Chem.rdchem.Mol object at 0x7fdd147325e0>]","[<rdkit.Chem.rdchem.Mol object at 0x7fdd14733ae0>, <rdkit.Chem.rdchem.Mol object at 0x7fdd14733990>, <rdkit.Chem.rdchem.Mol object at 0x7fdd147312a0>, <rdkit.Chem.rdchem.Mol object at 0x7fdd147322d0>]","[<rdkit.Chem.rdchem.Mol object at 0x7fdd14730f90>, <rdkit.Chem.rdchem.Mol object at 0x7fdd147323b0>, <rdkit.Chem.rdchem.Mol object at 0x7fdd147328f0>, <rdkit.Chem.rdchem.Mol object at 0x7fdd14731cb0>, <rdkit.Chem.rdchem.Mol object at 0x7fdd147325e0>, '.', <rdkit.Chem.rdchem.Mol object at 0x7fdd14733ae0>, <rdkit.Chem.rdchem.Mol object at 0x7fdd14733990>, <rdkit.Chem.rdchem.Mol object at 0x7fdd147312a0>, <rdkit.Chem.rdchem.Mol object at 0x7fdd147322d0>]","[0, 0, 0, 0, 0, 0, 0, 3747, 3748, 3749, 3750, 3751, 1, 3752, 3753, 3754, 3755]"
PBZ,IT-4F,-5.18,-3.22,-5.66875,-4.060416666666667,1.0,Toluene,PN,25.0,MoOx,ZnO,6.4,6.45,0.6,63.2,"[<rdkit.Chem.rdchem.Mol object at 0x7fdd14731070>, <rdkit.Chem.rdchem.Mol object at 0x7fdd14732340>, <rdkit.Chem.rdchem.Mol object at 0x7fdd14733b50>, <rdkit.Chem.rdchem.Mol object at 0x7fdd14730120>, <rdkit.Chem.rdchem.Mol object at 0x7fdd14731ee0>, <rdkit.Chem.rdchem.Mol object at 0x7fdd1473c510>]","[<rdkit.Chem.rdchem.Mol object at 0x7fdd14731a80>, <rdkit.Chem.rdchem.Mol object at 0x7fdd14733d80>, <rdkit.Chem.rdchem.Mol object at 0x7fdd14732180>, <rdkit.Chem.rdchem.Mol object at 0x7fdd147319a0>, <rdkit.Chem.rdchem.Mol object at 0x7fdd1473c430>]","[<rdkit.Chem.rdchem.Mol object at 0x7fdd14731070>, <rdkit.Chem.rdchem.Mol object at 0x7fdd14732340>, <rdkit.Chem.rdchem.Mol object at 0x7fdd14733b50>, <rdkit.Chem.rdchem.Mol object at 0x7fdd14730120>, <rdkit.Chem.rdchem.Mol object at 0x7fdd14731ee0>, <rdkit.Chem.rdchem.Mol object at 0x7fdd1473c510>, '.', <rdkit.Chem.rdchem.Mol object at 0x7fdd14731a80>, <rdkit.Chem.rdchem.Mol object at 0x7fdd14733d80>, <rdkit.Chem.rdchem.Mol object at 0x7fdd14732180>, <rdkit.Chem.rdchem.Mol object at 0x7fdd147319a0>, <rdkit.Chem.rdchem.Mol object at 0x7fdd1473c430>]","[0, 0, 0, 0, 0, 3756, 3757, 3758, 3759, 3760, 3761, 1, 3762, 3763, 3764, 3765, 3766]"
PBZ-Cl,IT-4F,-5.39,-3.41,-5.66875,-4.060416666666667,1.0,Toluene,PN,25.0,MoOx,ZnO,9.7,9.67,0.8,68.3,"[<rdkit.Chem.rdchem.Mol object at 0x7fdd14731af0>, <rdkit.Chem.rdchem.Mol object at 0x7fdd14730270>, <rdkit.Chem.rdchem.Mol object at 0x7fdd147313f0>, <rdkit.Chem.rdchem.Mol object at 0x7fdd1473c270>, <rdkit.Chem.rdchem.Mol object at 0x7fdd14731e00>, <rdkit.Chem.rdchem.Mol object at 0x7fdd1473c120>, <rdkit.Chem.rdchem.Mol object at 0x7fdd1473c890>]","[<rdkit.Chem.rdchem.Mol object at 0x7fdd14733ca0>, <rdkit.Chem.rdchem.Mol object at 0x7fdd14731770>, <rdkit.Chem.rdchem.Mol object at 0x7fdd14733a70>, <rdkit.Chem.rdchem.Mol object at 0x7fdd14733bc0>, <rdkit.Chem.rdchem.Mol object at 0x7fdd1473c0b0>]","[<rdkit.Chem.rdchem.Mol object at 0x7fdd14731af0>, <rdkit.Chem.rdchem.Mol object at 0x7fdd14730270>, <rdkit.Chem.rdchem.Mol object at 0x7fdd147313f0>, <rdkit.Chem.rdchem.Mol object at 0x7fdd1473c270>, <rdkit.Chem.rdchem.Mol object at 0x7fdd14731e00>, <rdkit.Chem.rdchem.Mol object at 0x7fdd1473c120>, <rdkit.Chem.rdchem.Mol object at 0x7fdd1473c890>, '.', <rdkit.Chem.rdchem.Mol object at 0x7fdd14733ca0>, <rdkit.Chem.rdchem.Mol object at 0x7fdd14731770>, <rdkit.Chem.rdchem.Mol object at 0x7fdd14733a70>, <rdkit.Chem.rdchem.Mol object at 0x7fdd14733bc0>, <rdkit.Chem.rdchem.Mol object at 0x7fdd1473c0b0>]","[0, 0, 0, 0, 3767, 3768, 3769, 3770, 3771, 3772, 3773, 1, 3774, 3775, 3776, 3777, 3778]"
PBZ-ClSi,IT-4F,-5.56,-3.5,-5.66875,-4.060416666666667,1.0,Toluene,PN,25.0,MoOx,ZnO,12.8,12.77,0.93,71.5,"[<rdkit.Chem.rdchem.Mol object at 0x7fdd14730e40>, <rdkit.Chem.rdchem.Mol object at 0x7fdd147318c0>, <rdkit.Chem.rdchem.Mol object at 0x7fdd14732e30>, <rdkit.Chem.rdchem.Mol object at 0x7fdd14733df0>, <rdkit.Chem.rdchem.Mol object at 0x7fdd14733ed0>, <rdkit.Chem.rdchem.Mol object at 0x7fdd1473c2e0>]","[<rdkit.Chem.rdchem.Mol object at 0x7fdd14733f40>, <rdkit.Chem.rdchem.Mol object at 0x7fdd1473c3c0>, <rdkit.Chem.rdchem.Mol object at 0x7fdd14730dd0>, <rdkit.Chem.rdchem.Mol object at 0x7fdd1473c740>, <rdkit.Chem.rdchem.Mol object at 0x7fdd1473ccf0>]","[<rdkit.Chem.rdchem.Mol object at 0x7fdd14730e40>, <rdkit.Chem.rdchem.Mol object at 0x7fdd147318c0>, <rdkit.Chem.rdchem.Mol object at 0x7fdd14732e30>, <rdkit.Chem.rdchem.Mol object at 0x7fdd14733df0>, <rdkit.Chem.rdchem.Mol object at 0x7fdd14733ed0>, <rdkit.Chem.rdchem.Mol object at 0x7fdd1473c2e0>, '.', <rdkit.Chem.rdchem.Mol object at 0x7fdd14733f40>, <rdkit.Chem.rdchem.Mol object at 0x7fdd1473c3c0>, <rdkit.Chem.rdchem.Mol object at 0x7fdd14730dd0>, <rdkit.Chem.rdchem.Mol object at 0x7fdd1473c740>, <rdkit.Chem.rdchem.Mol object at 0x7fdd1473ccf0>]","[0, 0, 0, 0, 0, 3779, 3780, 3781, 3782, 3783, 3784, 1, 3785, 3786, 3787, 3788, 3789]"
PT1,ITIC,-5.46,-3.59,-5.574146341463415,-3.915,0.667,CB,_,25.0,MoOx,ZnO,2.13,2.14,0.95,39.0,"[<rdkit.Chem.rdchem.Mol object at 0x7fdd147334c0>, <rdkit.Chem.rdchem.Mol object at 0x7fdd14733e60>, <rdkit.Chem.rdchem.Mol object at 0x7fdd1473c660>, <rdkit.Chem.rdchem.Mol object at 0x7fdd1473c190>, <rdkit.Chem.rdchem.Mol object at 0x7fdd1473cc10>]","[<rdkit.Chem.rdchem.Mol object at 0x7fdd1473cf90>, <rdkit.Chem.rdchem.Mol object at 0x7fdd1473cba0>, <rdkit.Chem.rdchem.Mol object at 0x7fdd14730c80>, <rdkit.Chem.rdchem.Mol object at 0x7fdd1473c820>, <rdkit.Chem.rdchem.Mol object at 0x7fdd1473ceb0>]","[<rdkit.Chem.rdchem.Mol object at 0x7fdd147334c0>, <rdkit.Chem.rdchem.Mol object at 0x7fdd14733e60>, <rdkit.Chem.rdchem.Mol object at 0x7fdd1473c660>, <rdkit.Chem.rdchem.Mol object at 0x7fdd1473c190>, <rdkit.Chem.rdchem.Mol object at 0x7fdd1473cc10>, '.', <rdkit.Chem.rdchem.Mol object at 0x7fdd1473cf90>, <rdkit.Chem.rdchem.Mol object at 0x7fdd1473cba0>, <rdkit.Chem.rdchem.Mol object at 0x7fdd14730c80>, <rdkit.Chem.rdchem.Mol object at 0x7fdd1473c820>, <rdkit.Chem.rdchem.Mol object at 0x7fdd1473ceb0>]","[0, 0, 0, 0, 0, 0, 3790, 3791, 3792, 3793, 3794, 1, 3795, 3796, 3797, 3798, 3799]"