Donor,Acceptor,HOMO_D_eV,LUMO_D_eV,HOMO_A_eV,LUMO_A_eV,D_A_ratio_m_m,solvent,solvent_additive,annealing_temperature,hole_contact_layer,electron_contact_layer,PCE_percent,calc_PCE_percent,Voc_V,FF_percent,Donor_BRICS,Acceptor_BRICS,DA_pair_BRICS,DA_tokenized_BRICS
FTAZ,IHIC2,-5.43,-3.3200000000000003,-5.69,-3.86,0.667,CF,_,25.0,MoOx,ZnO,7.45,7.45,0.775,61.2,"[<rdkit.Chem.rdchem.Mol object at 0x7fdd1480d850>, <rdkit.Chem.rdchem.Mol object at 0x7fdd1480f680>, <rdkit.Chem.rdchem.Mol object at 0x7fdd1480de00>, <rdkit.Chem.rdchem.Mol object at 0x7fdd1480f060>, <rdkit.Chem.rdchem.Mol object at 0x7fdd1480e490>, <rdkit.Chem.rdchem.Mol object at 0x7fdd14840270>]","[<rdkit.Chem.rdchem.Mol object at 0x7fdd1480f8b0>, <rdkit.Chem.rdchem.Mol object at 0x7fdd1480fed0>, <rdkit.Chem.rdchem.Mol object at 0x7fdd1480f300>, <rdkit.Chem.rdchem.Mol object at 0x7fdd1480f450>, <rdkit.Chem.rdchem.Mol object at 0x7fdd14840660>]","[<rdkit.Chem.rdchem.Mol object at 0x7fdd1480d850>, <rdkit.Chem.rdchem.Mol object at 0x7fdd1480f680>, <rdkit.Chem.rdchem.Mol object at 0x7fdd1480de00>, <rdkit.Chem.rdchem.Mol object at 0x7fdd1480f060>, <rdkit.Chem.rdchem.Mol object at 0x7fdd1480e490>, <rdkit.Chem.rdchem.Mol object at 0x7fdd14840270>, '.', <rdkit.Chem.rdchem.Mol object at 0x7fdd1480f8b0>, <rdkit.Chem.rdchem.Mol object at 0x7fdd1480fed0>, <rdkit.Chem.rdchem.Mol object at 0x7fdd1480f300>, <rdkit.Chem.rdchem.Mol object at 0x7fdd1480f450>, <rdkit.Chem.rdchem.Mol object at 0x7fdd14840660>]","[0, 0, 0, 0, 0, 984, 985, 986, 987, 988, 989, 1, 990, 991, 992, 993, 994]"
FTAZ,IOIC2,-5.43,-3.3200000000000003,-5.41,-3.78,0.667,CF,DIO,25.0,MoOx,ZnO,12.3,12.29,0.9,69.3,"[<rdkit.Chem.rdchem.Mol object at 0x7fdd1480fb50>, <rdkit.Chem.rdchem.Mol object at 0x7fdd1480e650>, <rdkit.Chem.rdchem.Mol object at 0x7fdd1480d5b0>, <rdkit.Chem.rdchem.Mol object at 0x7fdd148405f0>, <rdkit.Chem.rdchem.Mol object at 0x7fdd1480fd10>, <rdkit.Chem.rdchem.Mol object at 0x7fdd14840350>]","[<rdkit.Chem.rdchem.Mol object at 0x7fdd1480edc0>, <rdkit.Chem.rdchem.Mol object at 0x7fdd14840120>, <rdkit.Chem.rdchem.Mol object at 0x7fdd1480f290>, <rdkit.Chem.rdchem.Mol object at 0x7fdd148403c0>, <rdkit.Chem.rdchem.Mol object at 0x7fdd14842110>]","[<rdkit.Chem.rdchem.Mol object at 0x7fdd1480fb50>, <rdkit.Chem.rdchem.Mol object at 0x7fdd1480e650>, <rdkit.Chem.rdchem.Mol object at 0x7fdd1480d5b0>, <rdkit.Chem.rdchem.Mol object at 0x7fdd148405f0>, <rdkit.Chem.rdchem.Mol object at 0x7fdd1480fd10>, <rdkit.Chem.rdchem.Mol object at 0x7fdd14840350>, '.', <rdkit.Chem.rdchem.Mol object at 0x7fdd1480edc0>, <rdkit.Chem.rdchem.Mol object at 0x7fdd14840120>, <rdkit.Chem.rdchem.Mol object at 0x7fdd1480f290>, <rdkit.Chem.rdchem.Mol object at 0x7fdd148403c0>, <rdkit.Chem.rdchem.Mol object at 0x7fdd14842110>]","[0, 0, 0, 0, 0, 995, 996, 997, 998, 999, 1000, 1, 1001, 1002, 1003, 1004, 1005]"
PBQ-0F,ITIC,-5.18,-3.48,-5.574146341463415,-3.915,1.0,THF,isopropanol,160.0,MoOx,ZnO,6.68,6.68,0.69,59.91,"[<rdkit.Chem.rdchem.Mol object at 0x7fdd1480dee0>, <rdkit.Chem.rdchem.Mol object at 0x7fdd1480dcb0>, <rdkit.Chem.rdchem.Mol object at 0x7fdd148423b0>, <rdkit.Chem.rdchem.Mol object at 0x7fdd14842180>, <rdkit.Chem.rdchem.Mol object at 0x7fdd148417e0>, <rdkit.Chem.rdchem.Mol object at 0x7fdd14841d90>, <rdkit.Chem.rdchem.Mol object at 0x7fdd14840d60>, <rdkit.Chem.rdchem.Mol object at 0x7fdd14842650>]","[<rdkit.Chem.rdchem.Mol object at 0x7fdd1480f990>, <rdkit.Chem.rdchem.Mol object at 0x7fdd14842730>, <rdkit.Chem.rdchem.Mol object at 0x7fdd1480ef80>, <rdkit.Chem.rdchem.Mol object at 0x7fdd14840040>, <rdkit.Chem.rdchem.Mol object at 0x7fdd14840970>]","[<rdkit.Chem.rdchem.Mol object at 0x7fdd1480dee0>, <rdkit.Chem.rdchem.Mol object at 0x7fdd1480dcb0>, <rdkit.Chem.rdchem.Mol object at 0x7fdd148423b0>, <rdkit.Chem.rdchem.Mol object at 0x7fdd14842180>, <rdkit.Chem.rdchem.Mol object at 0x7fdd148417e0>, <rdkit.Chem.rdchem.Mol object at 0x7fdd14841d90>, <rdkit.Chem.rdchem.Mol object at 0x7fdd14840d60>, <rdkit.Chem.rdchem.Mol object at 0x7fdd14842650>, '.', <rdkit.Chem.rdchem.Mol object at 0x7fdd1480f990>, <rdkit.Chem.rdchem.Mol object at 0x7fdd14842730>, <rdkit.Chem.rdchem.Mol object at 0x7fdd1480ef80>, <rdkit.Chem.rdchem.Mol object at 0x7fdd14840040>, <rdkit.Chem.rdchem.Mol object at 0x7fdd14840970>]","[0, 0, 0, 1006, 1007, 1008, 1009, 1010, 1011, 1012, 1013, 1, 1014, 1015, 1016, 1017, 1018]"
PBQ-QF,ITIC,-5.34,-3.62,-5.574146341463415,-3.915,1.0,THF,isopropanol,160.0,MoOx,ZnO,8.9,8.9,0.83,62.49,"[<rdkit.Chem.rdchem.Mol object at 0x7fdd1480fca0>, <rdkit.Chem.rdchem.Mol object at 0x7fdd14840c80>, <rdkit.Chem.rdchem.Mol object at 0x7fdd148406d0>, <rdkit.Chem.rdchem.Mol object at 0x7fdd148428f0>, <rdkit.Chem.rdchem.Mol object at 0x7fdd14840510>, <rdkit.Chem.rdchem.Mol object at 0x7fdd148413f0>, <rdkit.Chem.rdchem.Mol object at 0x7fdd148418c0>, <rdkit.Chem.rdchem.Mol object at 0x7fdd14842dc0>]","[<rdkit.Chem.rdchem.Mol object at 0x7fdd14842ce0>, <rdkit.Chem.rdchem.Mol object at 0x7fdd14841a10>, <rdkit.Chem.rdchem.Mol object at 0x7fdd148425e0>, <rdkit.Chem.rdchem.Mol object at 0x7fdd14842b90>, <rdkit.Chem.rdchem.Mol object at 0x7fdd14841e70>]","[<rdkit.Chem.rdchem.Mol object at 0x7fdd1480fca0>, <rdkit.Chem.rdchem.Mol object at 0x7fdd14840c80>, <rdkit.Chem.rdchem.Mol object at 0x7fdd148406d0>, <rdkit.Chem.rdchem.Mol object at 0x7fdd148428f0>, <rdkit.Chem.rdchem.Mol object at 0x7fdd14840510>, <rdkit.Chem.rdchem.Mol object at 0x7fdd148413f0>, <rdkit.Chem.rdchem.Mol object at 0x7fdd148418c0>, <rdkit.Chem.rdchem.Mol object at 0x7fdd14842dc0>, '.', <rdkit.Chem.rdchem.Mol object at 0x7fdd14842ce0>, <rdkit.Chem.rdchem.Mol object at 0x7fdd14841a10>, <rdkit.Chem.rdchem.Mol object at 0x7fdd148425e0>, <rdkit.Chem.rdchem.Mol object at 0x7fdd14842b90>, <rdkit.Chem.rdchem.Mol object at 0x7fdd14841e70>]","[0, 0, 0, 1019, 1020, 1021, 1022, 1023, 1024, 1025, 1026, 1, 1027, 1028, 1029, 1030, 1031]"
PBQ-4F,ITIC,-5.49,-3.7,-5.574146341463415,-3.915,1.0,THF,isopropanol,160.0,MoOx,ZnO,11.34,11.34,0.95,66.8,"[<rdkit.Chem.rdchem.Mol object at 0x7fdd1480f920>, <rdkit.Chem.rdchem.Mol object at 0x7fdd14841b60>, <rdkit.Chem.rdchem.Mol object at 0x7fdd14840890>, <rdkit.Chem.rdchem.Mol object at 0x7fdd14840ac0>, <rdkit.Chem.rdchem.Mol object at 0x7fdd14842810>, <rdkit.Chem.rdchem.Mol object at 0x7fdd14842570>, <rdkit.Chem.rdchem.Mol object at 0x7fdd14842ab0>, <rdkit.Chem.rdchem.Mol object at 0x7fdd14840580>, <rdkit.Chem.rdchem.Mol object at 0x7fdd14843370>]","[<rdkit.Chem.rdchem.Mol object at 0x7fdd14843060>, <rdkit.Chem.rdchem.Mol object at 0x7fdd14842c70>, <rdkit.Chem.rdchem.Mol object at 0x7fdd14842960>, <rdkit.Chem.rdchem.Mol object at 0x7fdd148431b0>, <rdkit.Chem.rdchem.Mol object at 0x7fdd14840dd0>]","[<rdkit.Chem.rdchem.Mol object at 0x7fdd1480f920>, <rdkit.Chem.rdchem.Mol object at 0x7fdd14841b60>, <rdkit.Chem.rdchem.Mol object at 0x7fdd14840890>, <rdkit.Chem.rdchem.Mol object at 0x7fdd14840ac0>, <rdkit.Chem.rdchem.Mol object at 0x7fdd14842810>, <rdkit.Chem.rdchem.Mol object at 0x7fdd14842570>, <rdkit.Chem.rdchem.Mol object at 0x7fdd14842ab0>, <rdkit.Chem.rdchem.Mol object at 0x7fdd14840580>, <rdkit.Chem.rdchem.Mol object at 0x7fdd14843370>, '.', <rdkit.Chem.rdchem.Mol object at 0x7fdd14843060>, <rdkit.Chem.rdchem.Mol object at 0x7fdd14842c70>, <rdkit.Chem.rdchem.Mol object at 0x7fdd14842960>, <rdkit.Chem.rdchem.Mol object at 0x7fdd148431b0>, <rdkit.Chem.rdchem.Mol object at 0x7fdd14840dd0>]","[0, 0, 1032, 1033, 1034, 1035, 1036, 1037, 1038, 1039, 1040, 1, 1041, 1042, 1043, 1044, 1045]"
PBTA-TF,ITCC,-5.36,-3.4200000000000004,-5.47,-3.76,1.0,CF,DIO,25.0,PEDOT:PSS,PFN-Br,10.4,10.41,1.0,67.0,"[<rdkit.Chem.rdchem.Mol object at 0x7fdd1480fd80>, <rdkit.Chem.rdchem.Mol object at 0x7fdd14841070>, <rdkit.Chem.rdchem.Mol object at 0x7fdd14840820>, <rdkit.Chem.rdchem.Mol object at 0x7fdd148411c0>, <rdkit.Chem.rdchem.Mol object at 0x7fdd14842ff0>, <rdkit.Chem.rdchem.Mol object at 0x7fdd14841000>, <rdkit.Chem.rdchem.Mol object at 0x7fdd14841d20>]","[<rdkit.Chem.rdchem.Mol object at 0x7fdd148414d0>, <rdkit.Chem.rdchem.Mol object at 0x7fdd14842e30>, <rdkit.Chem.rdchem.Mol object at 0x7fdd14840430>, <rdkit.Chem.rdchem.Mol object at 0x7fdd14841850>, <rdkit.Chem.rdchem.Mol object at 0x7fdd14840740>]","[<rdkit.Chem.rdchem.Mol object at 0x7fdd1480fd80>, <rdkit.Chem.rdchem.Mol object at 0x7fdd14841070>, <rdkit.Chem.rdchem.Mol object at 0x7fdd14840820>, <rdkit.Chem.rdchem.Mol object at 0x7fdd148411c0>, <rdkit.Chem.rdchem.Mol object at 0x7fdd14842ff0>, <rdkit.Chem.rdchem.Mol object at 0x7fdd14841000>, <rdkit.Chem.rdchem.Mol object at 0x7fdd14841d20>, '.', <rdkit.Chem.rdchem.Mol object at 0x7fdd148414d0>, <rdkit.Chem.rdchem.Mol object at 0x7fdd14842e30>, <rdkit.Chem.rdchem.Mol object at 0x7fdd14840430>, <rdkit.Chem.rdchem.Mol object at 0x7fdd14841850>, <rdkit.Chem.rdchem.Mol object at 0x7fdd14840740>]","[0, 0, 0, 0, 1046, 1047, 1048, 1049, 1050, 1051, 1052, 1, 1053, 1054, 1055, 1056, 1057]"
PBTA-TF,IT-M,-5.36,-3.4200000000000004,-5.513571428571429,-3.808,1.0,CF,DIO,25.0,PEDOT:PSS,PFN-Br,12.2,12.23,0.97,71.0,"[<rdkit.Chem.rdchem.Mol object at 0x7fdd1480f7d0>, <rdkit.Chem.rdchem.Mol object at 0x7fdd14841930>, <rdkit.Chem.rdchem.Mol object at 0x7fdd14841700>, <rdkit.Chem.rdchem.Mol object at 0x7fdd14842ea0>, <rdkit.Chem.rdchem.Mol object at 0x7fdd14840c10>, <rdkit.Chem.rdchem.Mol object at 0x7fdd148430d0>, <rdkit.Chem.rdchem.Mol object at 0x7fdd14841cb0>]","[<rdkit.Chem.rdchem.Mol object at 0x7fdd148415b0>, <rdkit.Chem.rdchem.Mol object at 0x7fdd14840f20>, <rdkit.Chem.rdchem.Mol object at 0x7fdd14840ba0>, <rdkit.Chem.rdchem.Mol object at 0x7fdd14840e40>, <rdkit.Chem.rdchem.Mol object at 0x7fdd14842a40>]","[<rdkit.Chem.rdchem.Mol object at 0x7fdd1480f7d0>, <rdkit.Chem.rdchem.Mol object at 0x7fdd14841930>, <rdkit.Chem.rdchem.Mol object at 0x7fdd14841700>, <rdkit.Chem.rdchem.Mol object at 0x7fdd14842ea0>, <rdkit.Chem.rdchem.Mol object at 0x7fdd14840c10>, <rdkit.Chem.rdchem.Mol object at 0x7fdd148430d0>, <rdkit.Chem.rdchem.Mol object at 0x7fdd14841cb0>, '.', <rdkit.Chem.rdchem.Mol object at 0x7fdd148415b0>, <rdkit.Chem.rdchem.Mol object at 0x7fdd14840f20>, <rdkit.Chem.rdchem.Mol object at 0x7fdd14840ba0>, <rdkit.Chem.rdchem.Mol object at 0x7fdd14840e40>, <rdkit.Chem.rdchem.Mol object at 0x7fdd14842a40>]","[0, 0, 0, 0, 1058, 1059, 1060, 1061, 1062, 1063, 1064, 1, 1065, 1066, 1067, 1068, 1069]"
PBTA-TF,IT-4F,-5.36,-3.4200000000000004,-5.66875,-4.060416666666667,1.0,CF,DIO,25.0,PEDOT:PSS,PFN-Br,10.6,10.64,0.73,72.0,"[<rdkit.Chem.rdchem.Mol object at 0x7fdd14843140>, <rdkit.Chem.rdchem.Mol object at 0x7fdd14842f10>, <rdkit.Chem.rdchem.Mol object at 0x7fdd148433e0>, <rdkit.Chem.rdchem.Mol object at 0x7fdd148402e0>, <rdkit.Chem.rdchem.Mol object at 0x7fdd14841620>, <rdkit.Chem.rdchem.Mol object at 0x7fdd14841460>, <rdkit.Chem.rdchem.Mol object at 0x7fdd14842030>]","[<rdkit.Chem.rdchem.Mol object at 0x7fdd14842880>, <rdkit.Chem.rdchem.Mol object at 0x7fdd14841c40>, <rdkit.Chem.rdchem.Mol object at 0x7fdd14841bd0>, <rdkit.Chem.rdchem.Mol object at 0x7fdd14840a50>, <rdkit.Chem.rdchem.Mol object at 0x7fdd148427a0>]","[<rdkit.Chem.rdchem.Mol object at 0x7fdd14843140>, <rdkit.Chem.rdchem.Mol object at 0x7fdd14842f10>, <rdkit.Chem.rdchem.Mol object at 0x7fdd148433e0>, <rdkit.Chem.rdchem.Mol object at 0x7fdd148402e0>, <rdkit.Chem.rdchem.Mol object at 0x7fdd14841620>, <rdkit.Chem.rdchem.Mol object at 0x7fdd14841460>, <rdkit.Chem.rdchem.Mol object at 0x7fdd14842030>, '.', <rdkit.Chem.rdchem.Mol object at 0x7fdd14842880>, <rdkit.Chem.rdchem.Mol object at 0x7fdd14841c40>, <rdkit.Chem.rdchem.Mol object at 0x7fdd14841bd0>, <rdkit.Chem.rdchem.Mol object at 0x7fdd14840a50>, <rdkit.Chem.rdchem.Mol object at 0x7fdd148427a0>]","[0, 0, 0, 0, 1070, 1071, 1072, 1073, 1074, 1075, 1076, 1, 1077, 1078, 1079, 1080, 1081]"
PBTA-TF,IT-M,-5.36,-3.4200000000000004,-5.513571428571429,-3.808,1.0,THF,isopropanol,25.0,PEDOT:PSS,PFN-Br,12.0,11.82,0.96,67.0,"[<rdkit.Chem.rdchem.Mol object at 0x7fdd14840cf0>, <rdkit.Chem.rdchem.Mol object at 0x7fdd14841150>, <rdkit.Chem.rdchem.Mol object at 0x7fdd14842420>, <rdkit.Chem.rdchem.Mol object at 0x7fdd14843290>, <rdkit.Chem.rdchem.Mol object at 0x7fdd14842340>, <rdkit.Chem.rdchem.Mol object at 0x7fdd148422d0>, <rdkit.Chem.rdchem.Mol object at 0x7fdd148409e0>]","[<rdkit.Chem.rdchem.Mol object at 0x7fdd148404a0>, <rdkit.Chem.rdchem.Mol object at 0x7fdd14841af0>, <rdkit.Chem.rdchem.Mol object at 0x7fdd148420a0>, <rdkit.Chem.rdchem.Mol object at 0x7fdd148410e0>, <rdkit.Chem.rdchem.Mol object at 0x7fdd14840b30>]","[<rdkit.Chem.rdchem.Mol object at 0x7fdd14840cf0>, <rdkit.Chem.rdchem.Mol object at 0x7fdd14841150>, <rdkit.Chem.rdchem.Mol object at 0x7fdd14842420>, <rdkit.Chem.rdchem.Mol object at 0x7fdd14843290>, <rdkit.Chem.rdchem.Mol object at 0x7fdd14842340>, <rdkit.Chem.rdchem.Mol object at 0x7fdd148422d0>, <rdkit.Chem.rdchem.Mol object at 0x7fdd148409e0>, '.', <rdkit.Chem.rdchem.Mol object at 0x7fdd148404a0>, <rdkit.Chem.rdchem.Mol object at 0x7fdd14841af0>, <rdkit.Chem.rdchem.Mol object at 0x7fdd148420a0>, <rdkit.Chem.rdchem.Mol object at 0x7fdd148410e0>, <rdkit.Chem.rdchem.Mol object at 0x7fdd14840b30>]","[0, 0, 0, 0, 1082, 1083, 1084, 1085, 1086, 1087, 1088, 1, 1089, 1090, 1091, 1092, 1093]"
PBTA-TF,IT-M,-5.36,-3.4200000000000004,-5.513571428571429,-3.808,1.0,o-xylene,PN,25.0,PEDOT:PSS,PFN-Br,13.1,13.09,0.97,72.0,"[<rdkit.Chem.rdchem.Mol object at 0x7fdd14842500>, <rdkit.Chem.rdchem.Mol object at 0x7fdd14841ee0>, <rdkit.Chem.rdchem.Mol object at 0x7fdd14840190>, <rdkit.Chem.rdchem.Mol object at 0x7fdd148407b0>, <rdkit.Chem.rdchem.Mol object at 0x7fdd14841e00>, <rdkit.Chem.rdchem.Mol object at 0x7fdd14841f50>, <rdkit.Chem.rdchem.Mol object at 0x7fdd14843840>]","[<rdkit.Chem.rdchem.Mol object at 0x7fdd148438b0>, <rdkit.Chem.rdchem.Mol object at 0x7fdd14843530>, <rdkit.Chem.rdchem.Mol object at 0x7fdd14843300>, <rdkit.Chem.rdchem.Mol object at 0x7fdd14842c00>, <rdkit.Chem.rdchem.Mol object at 0x7fdd14841770>]","[<rdkit.Chem.rdchem.Mol object at 0x7fdd14842500>, <rdkit.Chem.rdchem.Mol object at 0x7fdd14841ee0>, <rdkit.Chem.rdchem.Mol object at 0x7fdd14840190>, <rdkit.Chem.rdchem.Mol object at 0x7fdd148407b0>, <rdkit.Chem.rdchem.Mol object at 0x7fdd14841e00>, <rdkit.Chem.rdchem.Mol object at 0x7fdd14841f50>, <rdkit.Chem.rdchem.Mol object at 0x7fdd14843840>, '.', <rdkit.Chem.rdchem.Mol object at 0x7fdd148438b0>, <rdkit.Chem.rdchem.Mol object at 0x7fdd14843530>, <rdkit.Chem.rdchem.Mol object at 0x7fdd14843300>, <rdkit.Chem.rdchem.Mol object at 0x7fdd14842c00>, <rdkit.Chem.rdchem.Mol object at 0x7fdd14841770>]","[0, 0, 0, 0, 1094, 1095, 1096, 1097, 1098, 1099, 1100, 1, 1101, 1102, 1103, 1104, 1105]"
PBDB-T,ITIC,-5.297714285714285,-3.4170000000000003,-5.574146341463415,-3.915,1.0,CB,DIO,160.0,MoOx,ZnO,11.21,11.21,0.899,74.2,"[<rdkit.Chem.rdchem.Mol object at 0x7fdd14840900>, <rdkit.Chem.rdchem.Mol object at 0x7fdd148412a0>, <rdkit.Chem.rdchem.Mol object at 0x7fdd14843760>, <rdkit.Chem.rdchem.Mol object at 0x7fdd14842f80>, <rdkit.Chem.rdchem.Mol object at 0x7fdd1484c0b0>]","[<rdkit.Chem.rdchem.Mol object at 0x7fdd14843e60>, <rdkit.Chem.rdchem.Mol object at 0x7fdd14843a70>, <rdkit.Chem.rdchem.Mol object at 0x7fdd14843c30>, <rdkit.Chem.rdchem.Mol object at 0x7fdd14843990>, <rdkit.Chem.rdchem.Mol object at 0x7fdd148435a0>]","[<rdkit.Chem.rdchem.Mol object at 0x7fdd14840900>, <rdkit.Chem.rdchem.Mol object at 0x7fdd148412a0>, <rdkit.Chem.rdchem.Mol object at 0x7fdd14843760>, <rdkit.Chem.rdchem.Mol object at 0x7fdd14842f80>, <rdkit.Chem.rdchem.Mol object at 0x7fdd1484c0b0>, '.', <rdkit.Chem.rdchem.Mol object at 0x7fdd14843e60>, <rdkit.Chem.rdchem.Mol object at 0x7fdd14843a70>, <rdkit.Chem.rdchem.Mol object at 0x7fdd14843c30>, <rdkit.Chem.rdchem.Mol object at 0x7fdd14843990>, <rdkit.Chem.rdchem.Mol object at 0x7fdd148435a0>]","[0, 0, 0, 0, 0, 0, 1106, 1107, 1108, 1109, 1110, 1, 1111, 1112, 1113, 1114, 1115]"
PBDB-T-SF,IT-4F,-5.41,-3.62,-5.66875,-4.060416666666667,1.0,CB,DIO,25.0,MoOx,ZnO,13.1,13.1,0.88,71.3,"[<rdkit.Chem.rdchem.Mol object at 0x7fdd14842d50>, <rdkit.Chem.rdchem.Mol object at 0x7fdd14843220>, <rdkit.Chem.rdchem.Mol object at 0x7fdd14843d80>, <rdkit.Chem.rdchem.Mol object at 0x7fdd148426c0>, <rdkit.Chem.rdchem.Mol object at 0x7fdd14843b50>, <rdkit.Chem.rdchem.Mol object at 0x7fdd1484c9e0>]","[<rdkit.Chem.rdchem.Mol object at 0x7fdd14843ae0>, <rdkit.Chem.rdchem.Mol object at 0x7fdd14841540>, <rdkit.Chem.rdchem.Mol object at 0x7fdd148429d0>, <rdkit.Chem.rdchem.Mol object at 0x7fdd14843df0>, <rdkit.Chem.rdchem.Mol object at 0x7fdd14842b20>]","[<rdkit.Chem.rdchem.Mol object at 0x7fdd14842d50>, <rdkit.Chem.rdchem.Mol object at 0x7fdd14843220>, <rdkit.Chem.rdchem.Mol object at 0x7fdd14843d80>, <rdkit.Chem.rdchem.Mol object at 0x7fdd148426c0>, <rdkit.Chem.rdchem.Mol object at 0x7fdd14843b50>, <rdkit.Chem.rdchem.Mol object at 0x7fdd1484c9e0>, '.', <rdkit.Chem.rdchem.Mol object at 0x7fdd14843ae0>, <rdkit.Chem.rdchem.Mol object at 0x7fdd14841540>, <rdkit.Chem.rdchem.Mol object at 0x7fdd148429d0>, <rdkit.Chem.rdchem.Mol object at 0x7fdd14843df0>, <rdkit.Chem.rdchem.Mol object at 0x7fdd14842b20>]","[0, 0, 0, 0, 0, 1116, 1117, 1118, 1119, 1120, 1121, 1, 1122, 1123, 1124, 1125, 1126]"
PBDB-T,ITIC,-5.297714285714285,-3.4170000000000003,-5.574146341463415,-3.915,1.0,CB,DIO,25.0,MoOx,ZnO,11.05,11.05,0.9,72.1,"[<rdkit.Chem.rdchem.Mol object at 0x7fdd14843450>, <rdkit.Chem.rdchem.Mol object at 0x7fdd14843a00>, <rdkit.Chem.rdchem.Mol object at 0x7fdd14843ed0>, <rdkit.Chem.rdchem.Mol object at 0x7fdd1484c900>, <rdkit.Chem.rdchem.Mol object at 0x7fdd1484cc80>]","[<rdkit.Chem.rdchem.Mol object at 0x7fdd148419a0>, <rdkit.Chem.rdchem.Mol object at 0x7fdd14841310>, <rdkit.Chem.rdchem.Mol object at 0x7fdd148421f0>, <rdkit.Chem.rdchem.Mol object at 0x7fdd14843d10>, <rdkit.Chem.rdchem.Mol object at 0x7fdd1484c510>]","[<rdkit.Chem.rdchem.Mol object at 0x7fdd14843450>, <rdkit.Chem.rdchem.Mol object at 0x7fdd14843a00>, <rdkit.Chem.rdchem.Mol object at 0x7fdd14843ed0>, <rdkit.Chem.rdchem.Mol object at 0x7fdd1484c900>, <rdkit.Chem.rdchem.Mol object at 0x7fdd1484cc80>, '.', <rdkit.Chem.rdchem.Mol object at 0x7fdd148419a0>, <rdkit.Chem.rdchem.Mol object at 0x7fdd14841310>, <rdkit.Chem.rdchem.Mol object at 0x7fdd148421f0>, <rdkit.Chem.rdchem.Mol object at 0x7fdd14843d10>, <rdkit.Chem.rdchem.Mol object at 0x7fdd1484c510>]","[0, 0, 0, 0, 0, 0, 1127, 1128, 1129, 1130, 1131, 1, 1132, 1133, 1134, 1135, 1136]"
PCDTBT-C12,SM1,-5.23,-3.26,-5.93,-3.5,0.5,DCB,_,90.0,PEDOT:PSS,LiF,2.78,2.79,1.04,56.0,"[<rdkit.Chem.rdchem.Mol object at 0x7fdd148437d0>, <rdkit.Chem.rdchem.Mol object at 0x7fdd14840eb0>, <rdkit.Chem.rdchem.Mol object at 0x7fdd14841fc0>, <rdkit.Chem.rdchem.Mol object at 0x7fdd14841380>, <rdkit.Chem.rdchem.Mol object at 0x7fdd14842490>, <rdkit.Chem.rdchem.Mol object at 0x7fdd14841690>, <rdkit.Chem.rdchem.Mol object at 0x7fdd1484c4a0>]","[<rdkit.Chem.rdchem.Mol object at 0x7fdd14843610>, <rdkit.Chem.rdchem.Mol object at 0x7fdd14843f40>, <rdkit.Chem.rdchem.Mol object at 0x7fdd14840f90>, <rdkit.Chem.rdchem.Mol object at 0x7fdd1484cf20>]","[<rdkit.Chem.rdchem.Mol object at 0x7fdd148437d0>, <rdkit.Chem.rdchem.Mol object at 0x7fdd14840eb0>, <rdkit.Chem.rdchem.Mol object at 0x7fdd14841fc0>, <rdkit.Chem.rdchem.Mol object at 0x7fdd14841380>, <rdkit.Chem.rdchem.Mol object at 0x7fdd14842490>, <rdkit.Chem.rdchem.Mol object at 0x7fdd14841690>, <rdkit.Chem.rdchem.Mol object at 0x7fdd1484c4a0>, '.', <rdkit.Chem.rdchem.Mol object at 0x7fdd14843610>, <rdkit.Chem.rdchem.Mol object at 0x7fdd14843f40>, <rdkit.Chem.rdchem.Mol object at 0x7fdd14840f90>, <rdkit.Chem.rdchem.Mol object at 0x7fdd1484cf20>]","[0, 0, 0, 0, 0, 1137, 1138, 1139, 1140, 1141, 1142, 1143, 1, 1144, 1145, 1146, 1147]"