Donor,Acceptor,HOMO_D_eV,LUMO_D_eV,HOMO_A_eV,LUMO_A_eV,D_A_ratio_m_m,solvent,solvent_additive,annealing_temperature,hole_contact_layer,electron_contact_layer,PCE_percent,calc_PCE_percent,Voc_V,FF_percent,Donor_BRICS,Acceptor_BRICS,DA_pair_BRICS,DA_tokenized_BRICS
P3HT,BTA1,-5.057777777777777,-2.989444444444445,-5.510000000000001,-3.5499999999999994,1.667,CF,CN,100.0,PEDOT:PSS,Ca,5.24,5.24,1.02,70.0,"[<rdkit.Chem.rdchem.Mol object at 0x7fdd148b36f0>, <rdkit.Chem.rdchem.Mol object at 0x7fdd148b0970>, <rdkit.Chem.rdchem.Mol object at 0x7fdd148b3ae0>, <rdkit.Chem.rdchem.Mol object at 0x7fdd148b35a0>]","[<rdkit.Chem.rdchem.Mol object at 0x7fdd148b3a70>, <rdkit.Chem.rdchem.Mol object at 0x7fdd148b3840>, <rdkit.Chem.rdchem.Mol object at 0x7fdd148b3760>, <rdkit.Chem.rdchem.Mol object at 0x7fdd148b3060>, <rdkit.Chem.rdchem.Mol object at 0x7fdd148b2e30>, <rdkit.Chem.rdchem.Mol object at 0x7fdd148e14d0>, <rdkit.Chem.rdchem.Mol object at 0x7fdd148b3f40>]","[<rdkit.Chem.rdchem.Mol object at 0x7fdd148b36f0>, <rdkit.Chem.rdchem.Mol object at 0x7fdd148b0970>, <rdkit.Chem.rdchem.Mol object at 0x7fdd148b3ae0>, <rdkit.Chem.rdchem.Mol object at 0x7fdd148b35a0>, '.', <rdkit.Chem.rdchem.Mol object at 0x7fdd148b3a70>, <rdkit.Chem.rdchem.Mol object at 0x7fdd148b3840>, <rdkit.Chem.rdchem.Mol object at 0x7fdd148b3760>, <rdkit.Chem.rdchem.Mol object at 0x7fdd148b3060>, <rdkit.Chem.rdchem.Mol object at 0x7fdd148b2e30>, <rdkit.Chem.rdchem.Mol object at 0x7fdd148e14d0>, <rdkit.Chem.rdchem.Mol object at 0x7fdd148b3f40>]","[0, 0, 0, 0, 0, 2781, 2782, 2783, 2784, 1, 2785, 2786, 2787, 2788, 2789, 2790, 2791]"
P3HT,BTA2,-5.057777777777777,-2.989444444444445,-5.43,-3.3800000000000003,0.6,CF,DIO,100.0,PEDOT:PSS,Ca,4.5,4.5,1.22,60.0,"[<rdkit.Chem.rdchem.Mol object at 0x7fdd148b0eb0>, <rdkit.Chem.rdchem.Mol object at 0x7fdd148b3d80>, <rdkit.Chem.rdchem.Mol object at 0x7fdd148b3ca0>, <rdkit.Chem.rdchem.Mol object at 0x7fdd148b2ea0>]","[<rdkit.Chem.rdchem.Mol object at 0x7fdd148b3990>, <rdkit.Chem.rdchem.Mol object at 0x7fdd148b26c0>, <rdkit.Chem.rdchem.Mol object at 0x7fdd148b0040>, <rdkit.Chem.rdchem.Mol object at 0x7fdd148b2650>, <rdkit.Chem.rdchem.Mol object at 0x7fdd148b2f80>, <rdkit.Chem.rdchem.Mol object at 0x7fdd148e19a0>, <rdkit.Chem.rdchem.Mol object at 0x7fdd148b3bc0>]","[<rdkit.Chem.rdchem.Mol object at 0x7fdd148b0eb0>, <rdkit.Chem.rdchem.Mol object at 0x7fdd148b3d80>, <rdkit.Chem.rdchem.Mol object at 0x7fdd148b3ca0>, <rdkit.Chem.rdchem.Mol object at 0x7fdd148b2ea0>, '.', <rdkit.Chem.rdchem.Mol object at 0x7fdd148b3990>, <rdkit.Chem.rdchem.Mol object at 0x7fdd148b26c0>, <rdkit.Chem.rdchem.Mol object at 0x7fdd148b0040>, <rdkit.Chem.rdchem.Mol object at 0x7fdd148b2650>, <rdkit.Chem.rdchem.Mol object at 0x7fdd148b2f80>, <rdkit.Chem.rdchem.Mol object at 0x7fdd148e19a0>, <rdkit.Chem.rdchem.Mol object at 0x7fdd148b3bc0>]","[0, 0, 0, 0, 0, 2792, 2793, 2794, 2795, 1, 2796, 2797, 2798, 2799, 2800, 2801, 2802]"
J71,ITIC,-5.353333333333333,-3.4318181818181825,-5.574146341463415,-3.915,1.0,CF,_,150.0,PEDOT:PSS,PDINO,11.41,11.36,0.94,69.77,"[<rdkit.Chem.rdchem.Mol object at 0x7fdd148b3e60>, <rdkit.Chem.rdchem.Mol object at 0x7fdd148b3d10>, <rdkit.Chem.rdchem.Mol object at 0x7fdd148b3290>, <rdkit.Chem.rdchem.Mol object at 0x7fdd148b3920>, <rdkit.Chem.rdchem.Mol object at 0x7fdd148b2810>, <rdkit.Chem.rdchem.Mol object at 0x7fdd148e1770>]","[<rdkit.Chem.rdchem.Mol object at 0x7fdd148b3530>, <rdkit.Chem.rdchem.Mol object at 0x7fdd148b3c30>, <rdkit.Chem.rdchem.Mol object at 0x7fdd148b3b50>, <rdkit.Chem.rdchem.Mol object at 0x7fdd148b33e0>, <rdkit.Chem.rdchem.Mol object at 0x7fdd148e1620>]","[<rdkit.Chem.rdchem.Mol object at 0x7fdd148b3e60>, <rdkit.Chem.rdchem.Mol object at 0x7fdd148b3d10>, <rdkit.Chem.rdchem.Mol object at 0x7fdd148b3290>, <rdkit.Chem.rdchem.Mol object at 0x7fdd148b3920>, <rdkit.Chem.rdchem.Mol object at 0x7fdd148b2810>, <rdkit.Chem.rdchem.Mol object at 0x7fdd148e1770>, '.', <rdkit.Chem.rdchem.Mol object at 0x7fdd148b3530>, <rdkit.Chem.rdchem.Mol object at 0x7fdd148b3c30>, <rdkit.Chem.rdchem.Mol object at 0x7fdd148b3b50>, <rdkit.Chem.rdchem.Mol object at 0x7fdd148b33e0>, <rdkit.Chem.rdchem.Mol object at 0x7fdd148e1620>]","[0, 0, 0, 0, 0, 2803, 2804, 2805, 2806, 2807, 2808, 1, 2809, 2810, 2811, 2812, 2813]"
P3HT,IDT-2BR,-5.057777777777777,-2.989444444444445,-5.52,-3.69,1.667,o-DCB,CN,25.0,PEDOT:PSS,Ca,5.12,5.1,0.84,68.1,"[<rdkit.Chem.rdchem.Mol object at 0x7fdd148b2ab0>, <rdkit.Chem.rdchem.Mol object at 0x7fdd148b0b30>, <rdkit.Chem.rdchem.Mol object at 0x7fdd148e03c0>, <rdkit.Chem.rdchem.Mol object at 0x7fdd148e1700>]","[<rdkit.Chem.rdchem.Mol object at 0x7fdd148b19a0>, <rdkit.Chem.rdchem.Mol object at 0x7fdd148b3a00>, <rdkit.Chem.rdchem.Mol object at 0x7fdd148b0ac0>, <rdkit.Chem.rdchem.Mol object at 0x7fdd148b3df0>, <rdkit.Chem.rdchem.Mol object at 0x7fdd148e1540>, <rdkit.Chem.rdchem.Mol object at 0x7fdd148e0270>]","[<rdkit.Chem.rdchem.Mol object at 0x7fdd148b2ab0>, <rdkit.Chem.rdchem.Mol object at 0x7fdd148b0b30>, <rdkit.Chem.rdchem.Mol object at 0x7fdd148e03c0>, <rdkit.Chem.rdchem.Mol object at 0x7fdd148e1700>, '.', <rdkit.Chem.rdchem.Mol object at 0x7fdd148b19a0>, <rdkit.Chem.rdchem.Mol object at 0x7fdd148b3a00>, <rdkit.Chem.rdchem.Mol object at 0x7fdd148b0ac0>, <rdkit.Chem.rdchem.Mol object at 0x7fdd148b3df0>, <rdkit.Chem.rdchem.Mol object at 0x7fdd148e1540>, <rdkit.Chem.rdchem.Mol object at 0x7fdd148e0270>]","[0, 0, 0, 0, 0, 0, 2814, 2815, 2816, 2817, 1, 2818, 2819, 2820, 2821, 2822, 2823]"
PBDTTT-EFT,IEICO-4F,-5.24,-3.66,-5.309971428571429,-3.851028571428572,0.667,CB,DIO,100.0,PEDOT:PSS,PFN-Br,10.0,10.01,0.739,59.4,"[<rdkit.Chem.rdchem.Mol object at 0x7fdd148b38b0>, <rdkit.Chem.rdchem.Mol object at 0x7fdd148b3ed0>, <rdkit.Chem.rdchem.Mol object at 0x7fdd148b2030>, <rdkit.Chem.rdchem.Mol object at 0x7fdd148b3680>, <rdkit.Chem.rdchem.Mol object at 0x7fdd148e02e0>, <rdkit.Chem.rdchem.Mol object at 0x7fdd148e00b0>, <rdkit.Chem.rdchem.Mol object at 0x7fdd148e1850>]","[<rdkit.Chem.rdchem.Mol object at 0x7fdd148b3370>, <rdkit.Chem.rdchem.Mol object at 0x7fdd148b2260>, <rdkit.Chem.rdchem.Mol object at 0x7fdd148e0510>, <rdkit.Chem.rdchem.Mol object at 0x7fdd148b3220>, <rdkit.Chem.rdchem.Mol object at 0x7fdd148e0e40>, <rdkit.Chem.rdchem.Mol object at 0x7fdd148e0430>, <rdkit.Chem.rdchem.Mol object at 0x7fdd148e1000>, <rdkit.Chem.rdchem.Mol object at 0x7fdd148e0cf0>]","[<rdkit.Chem.rdchem.Mol object at 0x7fdd148b38b0>, <rdkit.Chem.rdchem.Mol object at 0x7fdd148b3ed0>, <rdkit.Chem.rdchem.Mol object at 0x7fdd148b2030>, <rdkit.Chem.rdchem.Mol object at 0x7fdd148b3680>, <rdkit.Chem.rdchem.Mol object at 0x7fdd148e02e0>, <rdkit.Chem.rdchem.Mol object at 0x7fdd148e00b0>, <rdkit.Chem.rdchem.Mol object at 0x7fdd148e1850>, '.', <rdkit.Chem.rdchem.Mol object at 0x7fdd148b3370>, <rdkit.Chem.rdchem.Mol object at 0x7fdd148b2260>, <rdkit.Chem.rdchem.Mol object at 0x7fdd148e0510>, <rdkit.Chem.rdchem.Mol object at 0x7fdd148b3220>, <rdkit.Chem.rdchem.Mol object at 0x7fdd148e0e40>, <rdkit.Chem.rdchem.Mol object at 0x7fdd148e0430>, <rdkit.Chem.rdchem.Mol object at 0x7fdd148e1000>, <rdkit.Chem.rdchem.Mol object at 0x7fdd148e0cf0>]","[0, 2824, 2825, 2826, 2827, 2828, 2829, 2830, 1, 2831, 2832, 2833, 2834, 2835, 2836, 2837, 2838]"
J52,IEICO-4F,-5.218571428571429,-3.341428571428572,-5.309971428571429,-3.851028571428572,0.667,CB,DIO,100.0,PEDOT:PSS,PFN-Br,9.4,9.4,0.734,58.5,"[<rdkit.Chem.rdchem.Mol object at 0x7fdd148b3300>, <rdkit.Chem.rdchem.Mol object at 0x7fdd148b2d50>, <rdkit.Chem.rdchem.Mol object at 0x7fdd148e07b0>, <rdkit.Chem.rdchem.Mol object at 0x7fdd148e09e0>, <rdkit.Chem.rdchem.Mol object at 0x7fdd148e0350>, <rdkit.Chem.rdchem.Mol object at 0x7fdd148e0f90>]","[<rdkit.Chem.rdchem.Mol object at 0x7fdd148b34c0>, <rdkit.Chem.rdchem.Mol object at 0x7fdd148e18c0>, <rdkit.Chem.rdchem.Mol object at 0x7fdd148e1460>, <rdkit.Chem.rdchem.Mol object at 0x7fdd148e0b30>, <rdkit.Chem.rdchem.Mol object at 0x7fdd148e0970>, <rdkit.Chem.rdchem.Mol object at 0x7fdd148e0900>, <rdkit.Chem.rdchem.Mol object at 0x7fdd148e1a10>, <rdkit.Chem.rdchem.Mol object at 0x7fdd148e11c0>]","[<rdkit.Chem.rdchem.Mol object at 0x7fdd148b3300>, <rdkit.Chem.rdchem.Mol object at 0x7fdd148b2d50>, <rdkit.Chem.rdchem.Mol object at 0x7fdd148e07b0>, <rdkit.Chem.rdchem.Mol object at 0x7fdd148e09e0>, <rdkit.Chem.rdchem.Mol object at 0x7fdd148e0350>, <rdkit.Chem.rdchem.Mol object at 0x7fdd148e0f90>, '.', <rdkit.Chem.rdchem.Mol object at 0x7fdd148b34c0>, <rdkit.Chem.rdchem.Mol object at 0x7fdd148e18c0>, <rdkit.Chem.rdchem.Mol object at 0x7fdd148e1460>, <rdkit.Chem.rdchem.Mol object at 0x7fdd148e0b30>, <rdkit.Chem.rdchem.Mol object at 0x7fdd148e0970>, <rdkit.Chem.rdchem.Mol object at 0x7fdd148e0900>, <rdkit.Chem.rdchem.Mol object at 0x7fdd148e1a10>, <rdkit.Chem.rdchem.Mol object at 0x7fdd148e11c0>]","[0, 0, 2839, 2840, 2841, 2842, 2843, 2844, 1, 2845, 2846, 2847, 2848, 2849, 2850, 2851, 2852]"
PffT2-FTAZ-2DT,IEIC,-5.28,-3.37,-5.455,-3.8625,1.0,CB,_,90.0,V2O5,ZnO,7.2,7.18,0.998,59.0,"[<rdkit.Chem.rdchem.Mol object at 0x7fdd148b2ce0>, <rdkit.Chem.rdchem.Mol object at 0x7fdd148e1bd0>, <rdkit.Chem.rdchem.Mol object at 0x7fdd148e17e0>, <rdkit.Chem.rdchem.Mol object at 0x7fdd148e1150>, <rdkit.Chem.rdchem.Mol object at 0x7fdd148e0890>, <rdkit.Chem.rdchem.Mol object at 0x7fdd148e06d0>, <rdkit.Chem.rdchem.Mol object at 0x7fdd148e0040>]","[<rdkit.Chem.rdchem.Mol object at 0x7fdd148e10e0>, <rdkit.Chem.rdchem.Mol object at 0x7fdd148e1230>, <rdkit.Chem.rdchem.Mol object at 0x7fdd148e0f20>, <rdkit.Chem.rdchem.Mol object at 0x7fdd148e05f0>, <rdkit.Chem.rdchem.Mol object at 0x7fdd148e1930>, <rdkit.Chem.rdchem.Mol object at 0x7fdd148e36f0>, <rdkit.Chem.rdchem.Mol object at 0x7fdd148e3450>]","[<rdkit.Chem.rdchem.Mol object at 0x7fdd148b2ce0>, <rdkit.Chem.rdchem.Mol object at 0x7fdd148e1bd0>, <rdkit.Chem.rdchem.Mol object at 0x7fdd148e17e0>, <rdkit.Chem.rdchem.Mol object at 0x7fdd148e1150>, <rdkit.Chem.rdchem.Mol object at 0x7fdd148e0890>, <rdkit.Chem.rdchem.Mol object at 0x7fdd148e06d0>, <rdkit.Chem.rdchem.Mol object at 0x7fdd148e0040>, '.', <rdkit.Chem.rdchem.Mol object at 0x7fdd148e10e0>, <rdkit.Chem.rdchem.Mol object at 0x7fdd148e1230>, <rdkit.Chem.rdchem.Mol object at 0x7fdd148e0f20>, <rdkit.Chem.rdchem.Mol object at 0x7fdd148e05f0>, <rdkit.Chem.rdchem.Mol object at 0x7fdd148e1930>, <rdkit.Chem.rdchem.Mol object at 0x7fdd148e36f0>, <rdkit.Chem.rdchem.Mol object at 0x7fdd148e3450>]","[0, 0, 2853, 2854, 2855, 2856, 2857, 2858, 2859, 1, 2860, 2861, 2862, 2863, 2864, 2865, 2866]"
PTB7-Th,IEIC1,-5.204782608695651,-3.5391891891891896,-5.44,-3.87,1.667,DCB,CN,25.0,PEDOT:PSS,Ca,3.9,3.66,0.84,44.0,"[<rdkit.Chem.rdchem.Mol object at 0x7fdd148e3610>, <rdkit.Chem.rdchem.Mol object at 0x7fdd148e34c0>, <rdkit.Chem.rdchem.Mol object at 0x7fdd148e3680>, <rdkit.Chem.rdchem.Mol object at 0x7fdd148e3220>, <rdkit.Chem.rdchem.Mol object at 0x7fdd148e2f80>, <rdkit.Chem.rdchem.Mol object at 0x7fdd148e1e70>, <rdkit.Chem.rdchem.Mol object at 0x7fdd148e2ea0>]","[<rdkit.Chem.rdchem.Mol object at 0x7fdd148e3140>, <rdkit.Chem.rdchem.Mol object at 0x7fdd148e37d0>, <rdkit.Chem.rdchem.Mol object at 0x7fdd148e33e0>, <rdkit.Chem.rdchem.Mol object at 0x7fdd148e3370>, <rdkit.Chem.rdchem.Mol object at 0x7fdd148e2340>, <rdkit.Chem.rdchem.Mol object at 0x7fdd148e2730>]","[<rdkit.Chem.rdchem.Mol object at 0x7fdd148e3610>, <rdkit.Chem.rdchem.Mol object at 0x7fdd148e34c0>, <rdkit.Chem.rdchem.Mol object at 0x7fdd148e3680>, <rdkit.Chem.rdchem.Mol object at 0x7fdd148e3220>, <rdkit.Chem.rdchem.Mol object at 0x7fdd148e2f80>, <rdkit.Chem.rdchem.Mol object at 0x7fdd148e1e70>, <rdkit.Chem.rdchem.Mol object at 0x7fdd148e2ea0>, '.', <rdkit.Chem.rdchem.Mol object at 0x7fdd148e3140>, <rdkit.Chem.rdchem.Mol object at 0x7fdd148e37d0>, <rdkit.Chem.rdchem.Mol object at 0x7fdd148e33e0>, <rdkit.Chem.rdchem.Mol object at 0x7fdd148e3370>, <rdkit.Chem.rdchem.Mol object at 0x7fdd148e2340>, <rdkit.Chem.rdchem.Mol object at 0x7fdd148e2730>]","[0, 0, 0, 2867, 2868, 2869, 2870, 2871, 2872, 2873, 1, 2874, 2875, 2876, 2877, 2878, 2879]"
PTB7-Th,IEIC2,-5.204782608695651,-3.5391891891891896,-5.45,-3.87,0.833,DCB,CN,25.0,PEDOT:PSS,Ca,5.4,5.05,0.91,50.0,"[<rdkit.Chem.rdchem.Mol object at 0x7fdd148e2b90>, <rdkit.Chem.rdchem.Mol object at 0x7fdd148e2810>, <rdkit.Chem.rdchem.Mol object at 0x7fdd148e1fc0>, <rdkit.Chem.rdchem.Mol object at 0x7fdd148e2960>, <rdkit.Chem.rdchem.Mol object at 0x7fdd148e27a0>, <rdkit.Chem.rdchem.Mol object at 0x7fdd148e3840>, <rdkit.Chem.rdchem.Mol object at 0x7fdd148e2e30>]","[<rdkit.Chem.rdchem.Mol object at 0x7fdd148e2c70>, <rdkit.Chem.rdchem.Mol object at 0x7fdd148e25e0>, <rdkit.Chem.rdchem.Mol object at 0x7fdd148e3290>, <rdkit.Chem.rdchem.Mol object at 0x7fdd148e2d50>, <rdkit.Chem.rdchem.Mol object at 0x7fdd148e22d0>, <rdkit.Chem.rdchem.Mol object at 0x7fdd148f0350>, <rdkit.Chem.rdchem.Mol object at 0x7fdd148e3d80>]","[<rdkit.Chem.rdchem.Mol object at 0x7fdd148e2b90>, <rdkit.Chem.rdchem.Mol object at 0x7fdd148e2810>, <rdkit.Chem.rdchem.Mol object at 0x7fdd148e1fc0>, <rdkit.Chem.rdchem.Mol object at 0x7fdd148e2960>, <rdkit.Chem.rdchem.Mol object at 0x7fdd148e27a0>, <rdkit.Chem.rdchem.Mol object at 0x7fdd148e3840>, <rdkit.Chem.rdchem.Mol object at 0x7fdd148e2e30>, '.', <rdkit.Chem.rdchem.Mol object at 0x7fdd148e2c70>, <rdkit.Chem.rdchem.Mol object at 0x7fdd148e25e0>, <rdkit.Chem.rdchem.Mol object at 0x7fdd148e3290>, <rdkit.Chem.rdchem.Mol object at 0x7fdd148e2d50>, <rdkit.Chem.rdchem.Mol object at 0x7fdd148e22d0>, <rdkit.Chem.rdchem.Mol object at 0x7fdd148f0350>, <rdkit.Chem.rdchem.Mol object at 0x7fdd148e3d80>]","[0, 0, 2880, 2881, 2882, 2883, 2884, 2885, 2886, 1, 2887, 2888, 2889, 2890, 2891, 2892, 2893]"
PTB7-Th,IEIC3,-5.204782608695651,-3.5391891891891896,-5.46,-3.86,0.667,DCB,CN,25.0,PEDOT:PSS,Ca,7.4,6.9,0.93,58.0,"[<rdkit.Chem.rdchem.Mol object at 0x7fdd148e35a0>, <rdkit.Chem.rdchem.Mol object at 0x7fdd148e3ed0>, <rdkit.Chem.rdchem.Mol object at 0x7fdd148e3f40>, <rdkit.Chem.rdchem.Mol object at 0x7fdd148e3b50>, <rdkit.Chem.rdchem.Mol object at 0x7fdd148e3a00>, <rdkit.Chem.rdchem.Mol object at 0x7fdd148e3c30>, <rdkit.Chem.rdchem.Mol object at 0x7fdd148e1cb0>]","[<rdkit.Chem.rdchem.Mol object at 0x7fdd148e15b0>, <rdkit.Chem.rdchem.Mol object at 0x7fdd148e3e60>, <rdkit.Chem.rdchem.Mol object at 0x7fdd148e1380>, <rdkit.Chem.rdchem.Mol object at 0x7fdd148e3d10>, <rdkit.Chem.rdchem.Mol object at 0x7fdd148f0900>, <rdkit.Chem.rdchem.Mol object at 0x7fdd148e2b20>]","[<rdkit.Chem.rdchem.Mol object at 0x7fdd148e35a0>, <rdkit.Chem.rdchem.Mol object at 0x7fdd148e3ed0>, <rdkit.Chem.rdchem.Mol object at 0x7fdd148e3f40>, <rdkit.Chem.rdchem.Mol object at 0x7fdd148e3b50>, <rdkit.Chem.rdchem.Mol object at 0x7fdd148e3a00>, <rdkit.Chem.rdchem.Mol object at 0x7fdd148e3c30>, <rdkit.Chem.rdchem.Mol object at 0x7fdd148e1cb0>, '.', <rdkit.Chem.rdchem.Mol object at 0x7fdd148e15b0>, <rdkit.Chem.rdchem.Mol object at 0x7fdd148e3e60>, <rdkit.Chem.rdchem.Mol object at 0x7fdd148e1380>, <rdkit.Chem.rdchem.Mol object at 0x7fdd148e3d10>, <rdkit.Chem.rdchem.Mol object at 0x7fdd148f0900>, <rdkit.Chem.rdchem.Mol object at 0x7fdd148e2b20>]","[0, 0, 0, 2894, 2895, 2896, 2897, 2898, 2899, 2900, 1, 2901, 2902, 2903, 2904, 2905, 2906]"
PTB7-Th,IEIC,-5.204782608695651,-3.5391891891891896,-5.455,-3.8625,0.667,DCB,_,25.0,PEDOT:PSS,Ca,6.0,5.73,0.95,49.0,"[<rdkit.Chem.rdchem.Mol object at 0x7fdd148e0ac0>, <rdkit.Chem.rdchem.Mol object at 0x7fdd148e2ab0>, <rdkit.Chem.rdchem.Mol object at 0x7fdd148e2f10>, <rdkit.Chem.rdchem.Mol object at 0x7fdd148e2500>, <rdkit.Chem.rdchem.Mol object at 0x7fdd148e2a40>, <rdkit.Chem.rdchem.Mol object at 0x7fdd148e1d90>, <rdkit.Chem.rdchem.Mol object at 0x7fdd148e3df0>]","[<rdkit.Chem.rdchem.Mol object at 0x7fdd148e3530>, <rdkit.Chem.rdchem.Mol object at 0x7fdd148e2420>, <rdkit.Chem.rdchem.Mol object at 0x7fdd148e2880>, <rdkit.Chem.rdchem.Mol object at 0x7fdd148e28f0>, <rdkit.Chem.rdchem.Mol object at 0x7fdd148e23b0>, <rdkit.Chem.rdchem.Mol object at 0x7fdd148f0f20>, <rdkit.Chem.rdchem.Mol object at 0x7fdd148e12a0>]","[<rdkit.Chem.rdchem.Mol object at 0x7fdd148e0ac0>, <rdkit.Chem.rdchem.Mol object at 0x7fdd148e2ab0>, <rdkit.Chem.rdchem.Mol object at 0x7fdd148e2f10>, <rdkit.Chem.rdchem.Mol object at 0x7fdd148e2500>, <rdkit.Chem.rdchem.Mol object at 0x7fdd148e2a40>, <rdkit.Chem.rdchem.Mol object at 0x7fdd148e1d90>, <rdkit.Chem.rdchem.Mol object at 0x7fdd148e3df0>, '.', <rdkit.Chem.rdchem.Mol object at 0x7fdd148e3530>, <rdkit.Chem.rdchem.Mol object at 0x7fdd148e2420>, <rdkit.Chem.rdchem.Mol object at 0x7fdd148e2880>, <rdkit.Chem.rdchem.Mol object at 0x7fdd148e28f0>, <rdkit.Chem.rdchem.Mol object at 0x7fdd148e23b0>, <rdkit.Chem.rdchem.Mol object at 0x7fdd148f0f20>, <rdkit.Chem.rdchem.Mol object at 0x7fdd148e12a0>]","[0, 0, 2907, 2908, 2909, 2910, 2911, 2912, 2913, 1, 2914, 2915, 2916, 2917, 2918, 2919, 2920]"
PBDB-T,IT-M,-5.297714285714285,-3.4170000000000003,-5.513571428571429,-3.808,1.0,CB,DIO,160.0,MoOx,ZnO,12.05,12.05,0.94,73.5,"[<rdkit.Chem.rdchem.Mol object at 0x7fdd148e3ae0>, <rdkit.Chem.rdchem.Mol object at 0x7fdd148e04a0>, <rdkit.Chem.rdchem.Mol object at 0x7fdd148e1c40>, <rdkit.Chem.rdchem.Mol object at 0x7fdd148e0d60>, <rdkit.Chem.rdchem.Mol object at 0x7fdd148e2650>]","[<rdkit.Chem.rdchem.Mol object at 0x7fdd148e1a80>, <rdkit.Chem.rdchem.Mol object at 0x7fdd148e0820>, <rdkit.Chem.rdchem.Mol object at 0x7fdd148e0eb0>, <rdkit.Chem.rdchem.Mol object at 0x7fdd148e0a50>, <rdkit.Chem.rdchem.Mol object at 0x7fdd148e0740>]","[<rdkit.Chem.rdchem.Mol object at 0x7fdd148e3ae0>, <rdkit.Chem.rdchem.Mol object at 0x7fdd148e04a0>, <rdkit.Chem.rdchem.Mol object at 0x7fdd148e1c40>, <rdkit.Chem.rdchem.Mol object at 0x7fdd148e0d60>, <rdkit.Chem.rdchem.Mol object at 0x7fdd148e2650>, '.', <rdkit.Chem.rdchem.Mol object at 0x7fdd148e1a80>, <rdkit.Chem.rdchem.Mol object at 0x7fdd148e0820>, <rdkit.Chem.rdchem.Mol object at 0x7fdd148e0eb0>, <rdkit.Chem.rdchem.Mol object at 0x7fdd148e0a50>, <rdkit.Chem.rdchem.Mol object at 0x7fdd148e0740>]","[0, 0, 0, 0, 0, 0, 2921, 2922, 2923, 2924, 2925, 1, 2926, 2927, 2928, 2929, 2930]"
PBDB-T,IT-DM,-5.297714285714285,-3.4170000000000003,-5.515,-3.855,1.0,CB,DIO,160.0,MoOx,ZnO,11.29,11.29,0.97,70.6,"[<rdkit.Chem.rdchem.Mol object at 0x7fdd148e0660>, <rdkit.Chem.rdchem.Mol object at 0x7fdd148e2260>, <rdkit.Chem.rdchem.Mol object at 0x7fdd148e2490>, <rdkit.Chem.rdchem.Mol object at 0x7fdd148e2c00>, <rdkit.Chem.rdchem.Mol object at 0x7fdd148f0b30>]","[<rdkit.Chem.rdchem.Mol object at 0x7fdd148e21f0>, <rdkit.Chem.rdchem.Mol object at 0x7fdd148e13f0>, <rdkit.Chem.rdchem.Mol object at 0x7fdd148e2570>, <rdkit.Chem.rdchem.Mol object at 0x7fdd148e1af0>, <rdkit.Chem.rdchem.Mol object at 0x7fdd148e0120>]","[<rdkit.Chem.rdchem.Mol object at 0x7fdd148e0660>, <rdkit.Chem.rdchem.Mol object at 0x7fdd148e2260>, <rdkit.Chem.rdchem.Mol object at 0x7fdd148e2490>, <rdkit.Chem.rdchem.Mol object at 0x7fdd148e2c00>, <rdkit.Chem.rdchem.Mol object at 0x7fdd148f0b30>, '.', <rdkit.Chem.rdchem.Mol object at 0x7fdd148e21f0>, <rdkit.Chem.rdchem.Mol object at 0x7fdd148e13f0>, <rdkit.Chem.rdchem.Mol object at 0x7fdd148e2570>, <rdkit.Chem.rdchem.Mol object at 0x7fdd148e1af0>, <rdkit.Chem.rdchem.Mol object at 0x7fdd148e0120>]","[0, 0, 0, 0, 0, 0, 2931, 2932, 2933, 2934, 2935, 1, 2936, 2937, 2938, 2939, 2940]"