Donor,Acceptor,HOMO_D_eV,LUMO_D_eV,HOMO_A_eV,LUMO_A_eV,D_A_ratio_m_m,solvent,solvent_additive,annealing_temperature,hole_contact_layer,electron_contact_layer,PCE_percent,calc_PCE_percent,Voc_V,FF_percent,Donor_BRICS,Acceptor_BRICS,DA_pair_BRICS,DA_tokenized_BRICS
PBDB-T-SF,NCBDT-4Cl,-5.41,-3.62,-5.6,-4.02,1.0,CF,DIO,110.0,PEDOT:PSS,PDINO,14.1,14.13,0.851,74.3,"[<rdkit.Chem.rdchem.Mol object at 0x7fdd14713ca0>, <rdkit.Chem.rdchem.Mol object at 0x7fdd14715a10>, <rdkit.Chem.rdchem.Mol object at 0x7fdd14716570>, <rdkit.Chem.rdchem.Mol object at 0x7fdd14714120>, <rdkit.Chem.rdchem.Mol object at 0x7fdd14716490>, <rdkit.Chem.rdchem.Mol object at 0x7fdd14716a40>]","[<rdkit.Chem.rdchem.Mol object at 0x7fdd14716dc0>, <rdkit.Chem.rdchem.Mol object at 0x7fdd14716110>, <rdkit.Chem.rdchem.Mol object at 0x7fdd147161f0>, <rdkit.Chem.rdchem.Mol object at 0x7fdd14715bd0>, <rdkit.Chem.rdchem.Mol object at 0x7fdd14716ea0>, <rdkit.Chem.rdchem.Mol object at 0x7fdd14717f40>]","[<rdkit.Chem.rdchem.Mol object at 0x7fdd14713ca0>, <rdkit.Chem.rdchem.Mol object at 0x7fdd14715a10>, <rdkit.Chem.rdchem.Mol object at 0x7fdd14716570>, <rdkit.Chem.rdchem.Mol object at 0x7fdd14714120>, <rdkit.Chem.rdchem.Mol object at 0x7fdd14716490>, <rdkit.Chem.rdchem.Mol object at 0x7fdd14716a40>, '.', <rdkit.Chem.rdchem.Mol object at 0x7fdd14716dc0>, <rdkit.Chem.rdchem.Mol object at 0x7fdd14716110>, <rdkit.Chem.rdchem.Mol object at 0x7fdd147161f0>, <rdkit.Chem.rdchem.Mol object at 0x7fdd14715bd0>, <rdkit.Chem.rdchem.Mol object at 0x7fdd14716ea0>, <rdkit.Chem.rdchem.Mol object at 0x7fdd14717f40>]","[0, 0, 0, 0, 3424, 3425, 3426, 3427, 3428, 3429, 1, 3430, 3431, 3432, 3433, 3434, 3435]"
PM6,Y6,-5.529999999999999,-3.555,-5.65,-4.1,0.833,CF,CN,110.0,PEDOT:PSS,PDINO,15.7,15.71,0.83,74.8,"[<rdkit.Chem.rdchem.Mol object at 0x7fdd14713680>, <rdkit.Chem.rdchem.Mol object at 0x7fdd147176f0>, <rdkit.Chem.rdchem.Mol object at 0x7fdd14717990>, <rdkit.Chem.rdchem.Mol object at 0x7fdd14717220>, <rdkit.Chem.rdchem.Mol object at 0x7fdd14716f10>, <rdkit.Chem.rdchem.Mol object at 0x7fdd14715150>]","[<rdkit.Chem.rdchem.Mol object at 0x7fdd14714ba0>, <rdkit.Chem.rdchem.Mol object at 0x7fdd14717840>, <rdkit.Chem.rdchem.Mol object at 0x7fdd14716e30>, <rdkit.Chem.rdchem.Mol object at 0x7fdd147152a0>, <rdkit.Chem.rdchem.Mol object at 0x7fdd14716b20>, <rdkit.Chem.rdchem.Mol object at 0x7fdd14717d10>]","[<rdkit.Chem.rdchem.Mol object at 0x7fdd14713680>, <rdkit.Chem.rdchem.Mol object at 0x7fdd147176f0>, <rdkit.Chem.rdchem.Mol object at 0x7fdd14717990>, <rdkit.Chem.rdchem.Mol object at 0x7fdd14717220>, <rdkit.Chem.rdchem.Mol object at 0x7fdd14716f10>, <rdkit.Chem.rdchem.Mol object at 0x7fdd14715150>, '.', <rdkit.Chem.rdchem.Mol object at 0x7fdd14714ba0>, <rdkit.Chem.rdchem.Mol object at 0x7fdd14717840>, <rdkit.Chem.rdchem.Mol object at 0x7fdd14716e30>, <rdkit.Chem.rdchem.Mol object at 0x7fdd147152a0>, <rdkit.Chem.rdchem.Mol object at 0x7fdd14716b20>, <rdkit.Chem.rdchem.Mol object at 0x7fdd14717d10>]","[0, 0, 0, 0, 3436, 3437, 3438, 3439, 3440, 3441, 1, 3442, 3443, 3444, 3445, 3446, 3447]"
PBDB-T,ITC6-IC,-5.297714285714285,-3.4170000000000003,-5.73,-3.92,1.0,CB,_,125.0,MoOx,ZnO,11.61,11.62,0.97,73.0,"[<rdkit.Chem.rdchem.Mol object at 0x7fdd14712ce0>, <rdkit.Chem.rdchem.Mol object at 0x7fdd14715e00>, <rdkit.Chem.rdchem.Mol object at 0x7fdd14717c30>, <rdkit.Chem.rdchem.Mol object at 0x7fdd147175a0>, <rdkit.Chem.rdchem.Mol object at 0x7fdd14716ab0>]","[<rdkit.Chem.rdchem.Mol object at 0x7fdd14715850>, <rdkit.Chem.rdchem.Mol object at 0x7fdd147151c0>, <rdkit.Chem.rdchem.Mol object at 0x7fdd14717bc0>, <rdkit.Chem.rdchem.Mol object at 0x7fdd14716650>, <rdkit.Chem.rdchem.Mol object at 0x7fdd14720820>]","[<rdkit.Chem.rdchem.Mol object at 0x7fdd14712ce0>, <rdkit.Chem.rdchem.Mol object at 0x7fdd14715e00>, <rdkit.Chem.rdchem.Mol object at 0x7fdd14717c30>, <rdkit.Chem.rdchem.Mol object at 0x7fdd147175a0>, <rdkit.Chem.rdchem.Mol object at 0x7fdd14716ab0>, '.', <rdkit.Chem.rdchem.Mol object at 0x7fdd14715850>, <rdkit.Chem.rdchem.Mol object at 0x7fdd147151c0>, <rdkit.Chem.rdchem.Mol object at 0x7fdd14717bc0>, <rdkit.Chem.rdchem.Mol object at 0x7fdd14716650>, <rdkit.Chem.rdchem.Mol object at 0x7fdd14720820>]","[0, 0, 0, 0, 0, 0, 3448, 3449, 3450, 3451, 3452, 1, 3453, 3454, 3455, 3456, 3457]"
PBDBT-2F,IT-4F,-5.5,-3.75,-5.66875,-4.060416666666667,1.0,CB,DIO,25.0,PEDOT:PSS,PFN-Br,13.37,13.33,0.86,74.5,"[<rdkit.Chem.rdchem.Mol object at 0x7fdd14715b60>, <rdkit.Chem.rdchem.Mol object at 0x7fdd14720040>, <rdkit.Chem.rdchem.Mol object at 0x7fdd14720f20>, <rdkit.Chem.rdchem.Mol object at 0x7fdd14720ac0>, <rdkit.Chem.rdchem.Mol object at 0x7fdd147206d0>, <rdkit.Chem.rdchem.Mol object at 0x7fdd14721380>]","[<rdkit.Chem.rdchem.Mol object at 0x7fdd14717a70>, <rdkit.Chem.rdchem.Mol object at 0x7fdd14720ba0>, <rdkit.Chem.rdchem.Mol object at 0x7fdd14716ff0>, <rdkit.Chem.rdchem.Mol object at 0x7fdd14721690>, <rdkit.Chem.rdchem.Mol object at 0x7fdd147205f0>]","[<rdkit.Chem.rdchem.Mol object at 0x7fdd14715b60>, <rdkit.Chem.rdchem.Mol object at 0x7fdd14720040>, <rdkit.Chem.rdchem.Mol object at 0x7fdd14720f20>, <rdkit.Chem.rdchem.Mol object at 0x7fdd14720ac0>, <rdkit.Chem.rdchem.Mol object at 0x7fdd147206d0>, <rdkit.Chem.rdchem.Mol object at 0x7fdd14721380>, '.', <rdkit.Chem.rdchem.Mol object at 0x7fdd14717a70>, <rdkit.Chem.rdchem.Mol object at 0x7fdd14720ba0>, <rdkit.Chem.rdchem.Mol object at 0x7fdd14716ff0>, <rdkit.Chem.rdchem.Mol object at 0x7fdd14721690>, <rdkit.Chem.rdchem.Mol object at 0x7fdd147205f0>]","[0, 0, 0, 0, 0, 3510, 3511, 3512, 3513, 3514, 3515, 1, 3516, 3517, 3518, 3519, 3520]"
PBDBT-2F,ITIC,-5.5,-3.75,-5.574146341463415,-3.915,1.0,CB,DIO,25.0,PEDOT:PSS,PFN-Br,10.64,10.64,1.0,66.07,"[<rdkit.Chem.rdchem.Mol object at 0x7fdd14717290>, <rdkit.Chem.rdchem.Mol object at 0x7fdd14720a50>, <rdkit.Chem.rdchem.Mol object at 0x7fdd147207b0>, <rdkit.Chem.rdchem.Mol object at 0x7fdd14720c80>, <rdkit.Chem.rdchem.Mol object at 0x7fdd147210e0>, <rdkit.Chem.rdchem.Mol object at 0x7fdd14721150>]","[<rdkit.Chem.rdchem.Mol object at 0x7fdd147162d0>, <rdkit.Chem.rdchem.Mol object at 0x7fdd14720510>, <rdkit.Chem.rdchem.Mol object at 0x7fdd14716b90>, <rdkit.Chem.rdchem.Mol object at 0x7fdd14721af0>, <rdkit.Chem.rdchem.Mol object at 0x7fdd147211c0>]","[<rdkit.Chem.rdchem.Mol object at 0x7fdd14717290>, <rdkit.Chem.rdchem.Mol object at 0x7fdd14720a50>, <rdkit.Chem.rdchem.Mol object at 0x7fdd147207b0>, <rdkit.Chem.rdchem.Mol object at 0x7fdd14720c80>, <rdkit.Chem.rdchem.Mol object at 0x7fdd147210e0>, <rdkit.Chem.rdchem.Mol object at 0x7fdd14721150>, '.', <rdkit.Chem.rdchem.Mol object at 0x7fdd147162d0>, <rdkit.Chem.rdchem.Mol object at 0x7fdd14720510>, <rdkit.Chem.rdchem.Mol object at 0x7fdd14716b90>, <rdkit.Chem.rdchem.Mol object at 0x7fdd14721af0>, <rdkit.Chem.rdchem.Mol object at 0x7fdd147211c0>]","[0, 0, 0, 0, 0, 3521, 3522, 3523, 3524, 3525, 3526, 1, 3527, 3528, 3529, 3530, 3531]"
PBDB-T,ATT-6,-5.297714285714285,-3.4170000000000003,-5.45,-3.61,1.0,CF,_,160.0,PEDOT:PSS,PDINO,8.22,8.36,0.96,59.37,"[<rdkit.Chem.rdchem.Mol object at 0x7fdd147158c0>, <rdkit.Chem.rdchem.Mol object at 0x7fdd14721bd0>, <rdkit.Chem.rdchem.Mol object at 0x7fdd147218c0>, <rdkit.Chem.rdchem.Mol object at 0x7fdd147214d0>, <rdkit.Chem.rdchem.Mol object at 0x7fdd14721ee0>]","[<rdkit.Chem.rdchem.Mol object at 0x7fdd147178b0>, <rdkit.Chem.rdchem.Mol object at 0x7fdd14717060>, <rdkit.Chem.rdchem.Mol object at 0x7fdd14720cf0>, <rdkit.Chem.rdchem.Mol object at 0x7fdd14722030>, <rdkit.Chem.rdchem.Mol object at 0x7fdd14722110>, <rdkit.Chem.rdchem.Mol object at 0x7fdd14721540>, <rdkit.Chem.rdchem.Mol object at 0x7fdd14721a10>]","[<rdkit.Chem.rdchem.Mol object at 0x7fdd147158c0>, <rdkit.Chem.rdchem.Mol object at 0x7fdd14721bd0>, <rdkit.Chem.rdchem.Mol object at 0x7fdd147218c0>, <rdkit.Chem.rdchem.Mol object at 0x7fdd147214d0>, <rdkit.Chem.rdchem.Mol object at 0x7fdd14721ee0>, '.', <rdkit.Chem.rdchem.Mol object at 0x7fdd147178b0>, <rdkit.Chem.rdchem.Mol object at 0x7fdd14717060>, <rdkit.Chem.rdchem.Mol object at 0x7fdd14720cf0>, <rdkit.Chem.rdchem.Mol object at 0x7fdd14722030>, <rdkit.Chem.rdchem.Mol object at 0x7fdd14722110>, <rdkit.Chem.rdchem.Mol object at 0x7fdd14721540>, <rdkit.Chem.rdchem.Mol object at 0x7fdd14721a10>]","[0, 0, 0, 0, 3532, 3533, 3534, 3535, 3536, 1, 3537, 3538, 3539, 3540, 3541, 3542, 3543]"
PBDB-T,ATT-7,-5.297714285714285,-3.4170000000000003,-5.48,-3.66,1.0,CF,_,160.0,PEDOT:PSS,PDINO,10.12,10.34,0.97,66.67,"[<rdkit.Chem.rdchem.Mol object at 0x7fdd147169d0>, <rdkit.Chem.rdchem.Mol object at 0x7fdd14720270>, <rdkit.Chem.rdchem.Mol object at 0x7fdd147213f0>, <rdkit.Chem.rdchem.Mol object at 0x7fdd14721b60>, <rdkit.Chem.rdchem.Mol object at 0x7fdd14722500>]","[<rdkit.Chem.rdchem.Mol object at 0x7fdd14722570>, <rdkit.Chem.rdchem.Mol object at 0x7fdd14721a80>, <rdkit.Chem.rdchem.Mol object at 0x7fdd14722730>, <rdkit.Chem.rdchem.Mol object at 0x7fdd147217e0>, <rdkit.Chem.rdchem.Mol object at 0x7fdd14720c10>, <rdkit.Chem.rdchem.Mol object at 0x7fdd14721d20>, <rdkit.Chem.rdchem.Mol object at 0x7fdd14722880>, <rdkit.Chem.rdchem.Mol object at 0x7fdd147225e0>, <rdkit.Chem.rdchem.Mol object at 0x7fdd147228f0>]","[<rdkit.Chem.rdchem.Mol object at 0x7fdd147169d0>, <rdkit.Chem.rdchem.Mol object at 0x7fdd14720270>, <rdkit.Chem.rdchem.Mol object at 0x7fdd147213f0>, <rdkit.Chem.rdchem.Mol object at 0x7fdd14721b60>, <rdkit.Chem.rdchem.Mol object at 0x7fdd14722500>, '.', <rdkit.Chem.rdchem.Mol object at 0x7fdd14722570>, <rdkit.Chem.rdchem.Mol object at 0x7fdd14721a80>, <rdkit.Chem.rdchem.Mol object at 0x7fdd14722730>, <rdkit.Chem.rdchem.Mol object at 0x7fdd147217e0>, <rdkit.Chem.rdchem.Mol object at 0x7fdd14720c10>, <rdkit.Chem.rdchem.Mol object at 0x7fdd14721d20>, <rdkit.Chem.rdchem.Mol object at 0x7fdd14722880>, <rdkit.Chem.rdchem.Mol object at 0x7fdd147225e0>, <rdkit.Chem.rdchem.Mol object at 0x7fdd147228f0>]","[0, 0, 3544, 3545, 3546, 3547, 3548, 1, 3549, 3550, 3551, 3552, 3553, 3554, 3555, 3556, 3557]"
PBDB-T,Y1,-5.297714285714285,-3.4170000000000003,-5.45,-3.95,1.0,CB,CN,25.0,MoOx,ZnO,13.42,13.49,0.87,69.1,"[<rdkit.Chem.rdchem.Mol object at 0x7fdd14716960>, <rdkit.Chem.rdchem.Mol object at 0x7fdd14720740>, <rdkit.Chem.rdchem.Mol object at 0x7fdd147221f0>, <rdkit.Chem.rdchem.Mol object at 0x7fdd14722180>, <rdkit.Chem.rdchem.Mol object at 0x7fdd14722b90>]","[<rdkit.Chem.rdchem.Mol object at 0x7fdd14722dc0>, <rdkit.Chem.rdchem.Mol object at 0x7fdd147212a0>, <rdkit.Chem.rdchem.Mol object at 0x7fdd14721c40>, <rdkit.Chem.rdchem.Mol object at 0x7fdd147209e0>, <rdkit.Chem.rdchem.Mol object at 0x7fdd147219a0>]","[<rdkit.Chem.rdchem.Mol object at 0x7fdd14716960>, <rdkit.Chem.rdchem.Mol object at 0x7fdd14720740>, <rdkit.Chem.rdchem.Mol object at 0x7fdd147221f0>, <rdkit.Chem.rdchem.Mol object at 0x7fdd14722180>, <rdkit.Chem.rdchem.Mol object at 0x7fdd14722b90>, '.', <rdkit.Chem.rdchem.Mol object at 0x7fdd14722dc0>, <rdkit.Chem.rdchem.Mol object at 0x7fdd147212a0>, <rdkit.Chem.rdchem.Mol object at 0x7fdd14721c40>, <rdkit.Chem.rdchem.Mol object at 0x7fdd147209e0>, <rdkit.Chem.rdchem.Mol object at 0x7fdd147219a0>]","[0, 0, 0, 0, 0, 0, 3558, 3559, 3560, 3561, 3562, 1, 3563, 3564, 3565, 3566, 3567]"
PBDB-T,Y2,-5.297714285714285,-3.4170000000000003,-5.43,-4.04,1.0,CB,CN,25.0,MoOx,ZnO,13.4,13.41,0.82,69.4,"[<rdkit.Chem.rdchem.Mol object at 0x7fdd14721070>, <rdkit.Chem.rdchem.Mol object at 0x7fdd14721e00>, <rdkit.Chem.rdchem.Mol object at 0x7fdd14721770>, <rdkit.Chem.rdchem.Mol object at 0x7fdd14720430>, <rdkit.Chem.rdchem.Mol object at 0x7fdd14723060>]","[<rdkit.Chem.rdchem.Mol object at 0x7fdd14723290>, <rdkit.Chem.rdchem.Mol object at 0x7fdd14721850>, <rdkit.Chem.rdchem.Mol object at 0x7fdd147202e0>, <rdkit.Chem.rdchem.Mol object at 0x7fdd14722650>, <rdkit.Chem.rdchem.Mol object at 0x7fdd14721000>]","[<rdkit.Chem.rdchem.Mol object at 0x7fdd14721070>, <rdkit.Chem.rdchem.Mol object at 0x7fdd14721e00>, <rdkit.Chem.rdchem.Mol object at 0x7fdd14721770>, <rdkit.Chem.rdchem.Mol object at 0x7fdd14720430>, <rdkit.Chem.rdchem.Mol object at 0x7fdd14723060>, '.', <rdkit.Chem.rdchem.Mol object at 0x7fdd14723290>, <rdkit.Chem.rdchem.Mol object at 0x7fdd14721850>, <rdkit.Chem.rdchem.Mol object at 0x7fdd147202e0>, <rdkit.Chem.rdchem.Mol object at 0x7fdd14722650>, <rdkit.Chem.rdchem.Mol object at 0x7fdd14721000>]","[0, 0, 0, 0, 0, 0, 3568, 3569, 3570, 3571, 3572, 1, 3573, 3574, 3575, 3576, 3577]"
PBDB-T,BDTS-4Cl,-5.297714285714285,-3.4170000000000003,-5.45,-3.82,1.0,CF,_,25.0,PEDOT:PSS,PDINO,3.73,3.73,0.83,45.9,"[<rdkit.Chem.rdchem.Mol object at 0x7fdd14720970>, <rdkit.Chem.rdchem.Mol object at 0x7fdd14722e30>, <rdkit.Chem.rdchem.Mol object at 0x7fdd147229d0>, <rdkit.Chem.rdchem.Mol object at 0x7fdd147222d0>, <rdkit.Chem.rdchem.Mol object at 0x7fdd14723530>]","[<rdkit.Chem.rdchem.Mol object at 0x7fdd14723760>, <rdkit.Chem.rdchem.Mol object at 0x7fdd14720350>, <rdkit.Chem.rdchem.Mol object at 0x7fdd14721700>, <rdkit.Chem.rdchem.Mol object at 0x7fdd14722420>, <rdkit.Chem.rdchem.Mol object at 0x7fdd14722b20>, <rdkit.Chem.rdchem.Mol object at 0x7fdd14722490>, <rdkit.Chem.rdchem.Mol object at 0x7fdd147203c0>]","[<rdkit.Chem.rdchem.Mol object at 0x7fdd14720970>, <rdkit.Chem.rdchem.Mol object at 0x7fdd14722e30>, <rdkit.Chem.rdchem.Mol object at 0x7fdd147229d0>, <rdkit.Chem.rdchem.Mol object at 0x7fdd147222d0>, <rdkit.Chem.rdchem.Mol object at 0x7fdd14723530>, '.', <rdkit.Chem.rdchem.Mol object at 0x7fdd14723760>, <rdkit.Chem.rdchem.Mol object at 0x7fdd14720350>, <rdkit.Chem.rdchem.Mol object at 0x7fdd14721700>, <rdkit.Chem.rdchem.Mol object at 0x7fdd14722420>, <rdkit.Chem.rdchem.Mol object at 0x7fdd14722b20>, <rdkit.Chem.rdchem.Mol object at 0x7fdd14722490>, <rdkit.Chem.rdchem.Mol object at 0x7fdd147203c0>]","[0, 0, 0, 0, 3578, 3579, 3580, 3581, 3582, 1, 3583, 3584, 3585, 3586, 3587, 3588, 3589]"
PBDB-T,BDTC-4Cl,-5.297714285714285,-3.4170000000000003,-5.35,-3.75,1.0,CF,_,25.0,PEDOT:PSS,PDINO,9.54,9.54,0.864,59.5,"[<rdkit.Chem.rdchem.Mol object at 0x7fdd147220a0>, <rdkit.Chem.rdchem.Mol object at 0x7fdd14723300>, <rdkit.Chem.rdchem.Mol object at 0x7fdd14722ab0>, <rdkit.Chem.rdchem.Mol object at 0x7fdd14722810>, <rdkit.Chem.rdchem.Mol object at 0x7fdd14723b50>]","[<rdkit.Chem.rdchem.Mol object at 0x7fdd14723d80>, <rdkit.Chem.rdchem.Mol object at 0x7fdd14722f80>, <rdkit.Chem.rdchem.Mol object at 0x7fdd14720dd0>, <rdkit.Chem.rdchem.Mol object at 0x7fdd14723220>, <rdkit.Chem.rdchem.Mol object at 0x7fdd147237d0>, <rdkit.Chem.rdchem.Mol object at 0x7fdd14721310>, <rdkit.Chem.rdchem.Mol object at 0x7fdd14721230>]","[<rdkit.Chem.rdchem.Mol object at 0x7fdd147220a0>, <rdkit.Chem.rdchem.Mol object at 0x7fdd14723300>, <rdkit.Chem.rdchem.Mol object at 0x7fdd14722ab0>, <rdkit.Chem.rdchem.Mol object at 0x7fdd14722810>, <rdkit.Chem.rdchem.Mol object at 0x7fdd14723b50>, '.', <rdkit.Chem.rdchem.Mol object at 0x7fdd14723d80>, <rdkit.Chem.rdchem.Mol object at 0x7fdd14722f80>, <rdkit.Chem.rdchem.Mol object at 0x7fdd14720dd0>, <rdkit.Chem.rdchem.Mol object at 0x7fdd14723220>, <rdkit.Chem.rdchem.Mol object at 0x7fdd147237d0>, <rdkit.Chem.rdchem.Mol object at 0x7fdd14721310>, <rdkit.Chem.rdchem.Mol object at 0x7fdd14721230>]","[0, 0, 0, 0, 3590, 3591, 3592, 3593, 3594, 1, 3595, 3596, 3597, 3598, 3599, 3600, 3601]"
PTBB-o,ITCPTC,-5.52,-3.37,-5.604000000000001,-3.858000000000001,1.0,CF,_,100.0,MoOx,ZnO,2.14,2.22,0.99,30.5,"[<rdkit.Chem.rdchem.Mol object at 0x7fdd14722ce0>, <rdkit.Chem.rdchem.Mol object at 0x7fdd14722a40>, <rdkit.Chem.rdchem.Mol object at 0x7fdd147231b0>, <rdkit.Chem.rdchem.Mol object at 0x7fdd14723840>, <rdkit.Chem.rdchem.Mol object at 0x7fdd14723bc0>, <rdkit.Chem.rdchem.Mol object at 0x7fdd14723920>, <rdkit.Chem.rdchem.Mol object at 0x7fdd14723e60>, <rdkit.Chem.rdchem.Mol object at 0x7fdd14723f40>]","[<rdkit.Chem.rdchem.Mol object at 0x7fdd147223b0>, <rdkit.Chem.rdchem.Mol object at 0x7fdd14721460>, <rdkit.Chem.rdchem.Mol object at 0x7fdd14721620>, <rdkit.Chem.rdchem.Mol object at 0x7fdd14722c00>, <rdkit.Chem.rdchem.Mol object at 0x7fdd14723a00>]","[<rdkit.Chem.rdchem.Mol object at 0x7fdd14722ce0>, <rdkit.Chem.rdchem.Mol object at 0x7fdd14722a40>, <rdkit.Chem.rdchem.Mol object at 0x7fdd147231b0>, <rdkit.Chem.rdchem.Mol object at 0x7fdd14723840>, <rdkit.Chem.rdchem.Mol object at 0x7fdd14723bc0>, <rdkit.Chem.rdchem.Mol object at 0x7fdd14723920>, <rdkit.Chem.rdchem.Mol object at 0x7fdd14723e60>, <rdkit.Chem.rdchem.Mol object at 0x7fdd14723f40>, '.', <rdkit.Chem.rdchem.Mol object at 0x7fdd147223b0>, <rdkit.Chem.rdchem.Mol object at 0x7fdd14721460>, <rdkit.Chem.rdchem.Mol object at 0x7fdd14721620>, <rdkit.Chem.rdchem.Mol object at 0x7fdd14722c00>, <rdkit.Chem.rdchem.Mol object at 0x7fdd14723a00>]","[0, 0, 0, 3602, 3603, 3604, 3605, 3606, 3607, 3608, 3609, 1, 3610, 3611, 3612, 3613, 3614]"
PTBB-m,ITCPTC,-5.48,-3.42,-5.604000000000001,-3.858000000000001,1.0,CF,_,100.0,MoOx,ZnO,7.07,7.06,0.97,48.4,"[<rdkit.Chem.rdchem.Mol object at 0x7fdd14723c30>, <rdkit.Chem.rdchem.Mol object at 0x7fdd14722340>, <rdkit.Chem.rdchem.Mol object at 0x7fdd14723990>, <rdkit.Chem.rdchem.Mol object at 0x7fdd147234c0>, <rdkit.Chem.rdchem.Mol object at 0x7fdd14723450>, <rdkit.Chem.rdchem.Mol object at 0x7fdd14723ed0>, <rdkit.Chem.rdchem.Mol object at 0x7fdd14721e70>, <rdkit.Chem.rdchem.Mol object at 0x7fdd14723ae0>]","[<rdkit.Chem.rdchem.Mol object at 0x7fdd147227a0>, <rdkit.Chem.rdchem.Mol object at 0x7fdd14723370>, <rdkit.Chem.rdchem.Mol object at 0x7fdd14723610>, <rdkit.Chem.rdchem.Mol object at 0x7fdd14723ca0>, <rdkit.Chem.rdchem.Mol object at 0x7fdd147302e0>]","[<rdkit.Chem.rdchem.Mol object at 0x7fdd14723c30>, <rdkit.Chem.rdchem.Mol object at 0x7fdd14722340>, <rdkit.Chem.rdchem.Mol object at 0x7fdd14723990>, <rdkit.Chem.rdchem.Mol object at 0x7fdd147234c0>, <rdkit.Chem.rdchem.Mol object at 0x7fdd14723450>, <rdkit.Chem.rdchem.Mol object at 0x7fdd14723ed0>, <rdkit.Chem.rdchem.Mol object at 0x7fdd14721e70>, <rdkit.Chem.rdchem.Mol object at 0x7fdd14723ae0>, '.', <rdkit.Chem.rdchem.Mol object at 0x7fdd147227a0>, <rdkit.Chem.rdchem.Mol object at 0x7fdd14723370>, <rdkit.Chem.rdchem.Mol object at 0x7fdd14723610>, <rdkit.Chem.rdchem.Mol object at 0x7fdd14723ca0>, <rdkit.Chem.rdchem.Mol object at 0x7fdd147302e0>]","[0, 0, 0, 3615, 3616, 3617, 3618, 3619, 3620, 3621, 3622, 1, 3623, 3624, 3625, 3626, 3627]"
PTBB-p,ITCPTC,-5.41,-3.49,-5.604000000000001,-3.858000000000001,1.0,CF,_,100.0,MoOx,ZnO,7.26,7.27,0.91,50.9,"[<rdkit.Chem.rdchem.Mol object at 0x7fdd14720d60>, <rdkit.Chem.rdchem.Mol object at 0x7fdd147236f0>, <rdkit.Chem.rdchem.Mol object at 0x7fdd14722960>, <rdkit.Chem.rdchem.Mol object at 0x7fdd147300b0>, <rdkit.Chem.rdchem.Mol object at 0x7fdd14722c70>, <rdkit.Chem.rdchem.Mol object at 0x7fdd14722ea0>, <rdkit.Chem.rdchem.Mol object at 0x7fdd14730190>, <rdkit.Chem.rdchem.Mol object at 0x7fdd14730820>]","[<rdkit.Chem.rdchem.Mol object at 0x7fdd14722ff0>, <rdkit.Chem.rdchem.Mol object at 0x7fdd14730660>, <rdkit.Chem.rdchem.Mol object at 0x7fdd147226c0>, <rdkit.Chem.rdchem.Mol object at 0x7fdd14723d10>, <rdkit.Chem.rdchem.Mol object at 0x7fdd14730900>]","[<rdkit.Chem.rdchem.Mol object at 0x7fdd14720d60>, <rdkit.Chem.rdchem.Mol object at 0x7fdd147236f0>, <rdkit.Chem.rdchem.Mol object at 0x7fdd14722960>, <rdkit.Chem.rdchem.Mol object at 0x7fdd147300b0>, <rdkit.Chem.rdchem.Mol object at 0x7fdd14722c70>, <rdkit.Chem.rdchem.Mol object at 0x7fdd14722ea0>, <rdkit.Chem.rdchem.Mol object at 0x7fdd14730190>, <rdkit.Chem.rdchem.Mol object at 0x7fdd14730820>, '.', <rdkit.Chem.rdchem.Mol object at 0x7fdd14722ff0>, <rdkit.Chem.rdchem.Mol object at 0x7fdd14730660>, <rdkit.Chem.rdchem.Mol object at 0x7fdd147226c0>, <rdkit.Chem.rdchem.Mol object at 0x7fdd14723d10>, <rdkit.Chem.rdchem.Mol object at 0x7fdd14730900>]","[0, 0, 0, 3628, 3629, 3630, 3631, 3632, 3633, 3634, 3635, 1, 3636, 3637, 3638, 3639, 3640]"