Donor,Acceptor,HOMO_D_eV,LUMO_D_eV,HOMO_A_eV,LUMO_A_eV,D_A_ratio_m_m,solvent,solvent_additive,annealing_temperature,hole_contact_layer,electron_contact_layer,PCE_percent,calc_PCE_percent,Voc_V,FF_percent,Donor_BRICS,Acceptor_BRICS,DA_pair_BRICS,DA_tokenized_BRICS
PBDB-ST,ITIC-SC6,-5.37,-3.59,-5.68,-3.91,1.0,DCB,CBA,110.0,MoOx,ZnO,7.27,7.24,0.9,58.0,"[<rdkit.Chem.rdchem.Mol object at 0x7fdd148e0580>, <rdkit.Chem.rdchem.Mol object at 0x7fdd148e0c80>, <rdkit.Chem.rdchem.Mol object at 0x7fdd148e3920>, <rdkit.Chem.rdchem.Mol object at 0x7fdd148e1b60>, <rdkit.Chem.rdchem.Mol object at 0x7fdd148e3300>, <rdkit.Chem.rdchem.Mol object at 0x7fdd148e2030>, <rdkit.Chem.rdchem.Mol object at 0x7fdd148f0270>]","[<rdkit.Chem.rdchem.Mol object at 0x7fdd148e3bc0>, <rdkit.Chem.rdchem.Mol object at 0x7fdd148e3a70>, <rdkit.Chem.rdchem.Mol object at 0x7fdd148e0c10>, <rdkit.Chem.rdchem.Mol object at 0x7fdd148e2ce0>, <rdkit.Chem.rdchem.Mol object at 0x7fdd148e2180>, <rdkit.Chem.rdchem.Mol object at 0x7fdd148e0190>]","[<rdkit.Chem.rdchem.Mol object at 0x7fdd148e0580>, <rdkit.Chem.rdchem.Mol object at 0x7fdd148e0c80>, <rdkit.Chem.rdchem.Mol object at 0x7fdd148e3920>, <rdkit.Chem.rdchem.Mol object at 0x7fdd148e1b60>, <rdkit.Chem.rdchem.Mol object at 0x7fdd148e3300>, <rdkit.Chem.rdchem.Mol object at 0x7fdd148e2030>, <rdkit.Chem.rdchem.Mol object at 0x7fdd148f0270>, '.', <rdkit.Chem.rdchem.Mol object at 0x7fdd148e3bc0>, <rdkit.Chem.rdchem.Mol object at 0x7fdd148e3a70>, <rdkit.Chem.rdchem.Mol object at 0x7fdd148e0c10>, <rdkit.Chem.rdchem.Mol object at 0x7fdd148e2ce0>, <rdkit.Chem.rdchem.Mol object at 0x7fdd148e2180>, <rdkit.Chem.rdchem.Mol object at 0x7fdd148e0190>]","[0, 0, 0, 2941, 2942, 2943, 2944, 2945, 2946, 2947, 1, 2948, 2949, 2950, 2951, 2952, 2953]"
PBDB-ST,ITIC-SC8,-5.37,-3.59,-5.7,-3.9,1.0,DCB,CBA,110.0,MoOx,ZnO,7.79,7.79,0.9,60.0,"[<rdkit.Chem.rdchem.Mol object at 0x7fdd148e2dc0>, <rdkit.Chem.rdchem.Mol object at 0x7fdd148e20a0>, <rdkit.Chem.rdchem.Mol object at 0x7fdd148e1e00>, <rdkit.Chem.rdchem.Mol object at 0x7fdd148f0c80>, <rdkit.Chem.rdchem.Mol object at 0x7fdd148e1070>, <rdkit.Chem.rdchem.Mol object at 0x7fdd148f05f0>, <rdkit.Chem.rdchem.Mol object at 0x7fdd148f1070>]","[<rdkit.Chem.rdchem.Mol object at 0x7fdd148e1ee0>, <rdkit.Chem.rdchem.Mol object at 0x7fdd148e3060>, <rdkit.Chem.rdchem.Mol object at 0x7fdd148e3760>, <rdkit.Chem.rdchem.Mol object at 0x7fdd148e30d0>, <rdkit.Chem.rdchem.Mol object at 0x7fdd148e0ba0>, <rdkit.Chem.rdchem.Mol object at 0x7fdd148f11c0>]","[<rdkit.Chem.rdchem.Mol object at 0x7fdd148e2dc0>, <rdkit.Chem.rdchem.Mol object at 0x7fdd148e20a0>, <rdkit.Chem.rdchem.Mol object at 0x7fdd148e1e00>, <rdkit.Chem.rdchem.Mol object at 0x7fdd148f0c80>, <rdkit.Chem.rdchem.Mol object at 0x7fdd148e1070>, <rdkit.Chem.rdchem.Mol object at 0x7fdd148f05f0>, <rdkit.Chem.rdchem.Mol object at 0x7fdd148f1070>, '.', <rdkit.Chem.rdchem.Mol object at 0x7fdd148e1ee0>, <rdkit.Chem.rdchem.Mol object at 0x7fdd148e3060>, <rdkit.Chem.rdchem.Mol object at 0x7fdd148e3760>, <rdkit.Chem.rdchem.Mol object at 0x7fdd148e30d0>, <rdkit.Chem.rdchem.Mol object at 0x7fdd148e0ba0>, <rdkit.Chem.rdchem.Mol object at 0x7fdd148f11c0>]","[0, 0, 0, 2954, 2955, 2956, 2957, 2958, 2959, 2960, 1, 2961, 2962, 2963, 2964, 2965, 2966]"
PBDB-ST,ITIC-SC2C6,-5.37,-3.59,-5.74,-3.86,1.0,DCB,CBA,110.0,MoOx,ZnO,9.16,9.02,0.92,64.0,"[<rdkit.Chem.rdchem.Mol object at 0x7fdd148e1d20>, <rdkit.Chem.rdchem.Mol object at 0x7fdd148e3ca0>, <rdkit.Chem.rdchem.Mol object at 0x7fdd148e3990>, <rdkit.Chem.rdchem.Mol object at 0x7fdd148f02e0>, <rdkit.Chem.rdchem.Mol object at 0x7fdd148f09e0>, <rdkit.Chem.rdchem.Mol object at 0x7fdd148f00b0>, <rdkit.Chem.rdchem.Mol object at 0x7fdd148f1700>]","[<rdkit.Chem.rdchem.Mol object at 0x7fdd148e38b0>, <rdkit.Chem.rdchem.Mol object at 0x7fdd148f1690>, <rdkit.Chem.rdchem.Mol object at 0x7fdd148e29d0>, <rdkit.Chem.rdchem.Mol object at 0x7fdd148f0510>, <rdkit.Chem.rdchem.Mol object at 0x7fdd148f1000>, <rdkit.Chem.rdchem.Mol object at 0x7fdd148f0ba0>]","[<rdkit.Chem.rdchem.Mol object at 0x7fdd148e1d20>, <rdkit.Chem.rdchem.Mol object at 0x7fdd148e3ca0>, <rdkit.Chem.rdchem.Mol object at 0x7fdd148e3990>, <rdkit.Chem.rdchem.Mol object at 0x7fdd148f02e0>, <rdkit.Chem.rdchem.Mol object at 0x7fdd148f09e0>, <rdkit.Chem.rdchem.Mol object at 0x7fdd148f00b0>, <rdkit.Chem.rdchem.Mol object at 0x7fdd148f1700>, '.', <rdkit.Chem.rdchem.Mol object at 0x7fdd148e38b0>, <rdkit.Chem.rdchem.Mol object at 0x7fdd148f1690>, <rdkit.Chem.rdchem.Mol object at 0x7fdd148e29d0>, <rdkit.Chem.rdchem.Mol object at 0x7fdd148f0510>, <rdkit.Chem.rdchem.Mol object at 0x7fdd148f1000>, <rdkit.Chem.rdchem.Mol object at 0x7fdd148f0ba0>]","[0, 0, 0, 2967, 2968, 2969, 2970, 2971, 2972, 2973, 1, 2974, 2975, 2976, 2977, 2978, 2979]"
PTB7-Th,ITIC-Th,-5.204782608695651,-3.5391891891891896,-5.673333333333334,-3.908888888888889,0.769,o-DCB,CN,25.0,MoOx,ZnO,8.7,8.67,0.8,68.0,"[<rdkit.Chem.rdchem.Mol object at 0x7fdd148e2ff0>, <rdkit.Chem.rdchem.Mol object at 0x7fdd148e1f50>, <rdkit.Chem.rdchem.Mol object at 0x7fdd148e1310>, <rdkit.Chem.rdchem.Mol object at 0x7fdd148f0dd0>, <rdkit.Chem.rdchem.Mol object at 0x7fdd148f0cf0>, <rdkit.Chem.rdchem.Mol object at 0x7fdd148f0120>, <rdkit.Chem.rdchem.Mol object at 0x7fdd148f0a50>]","[<rdkit.Chem.rdchem.Mol object at 0x7fdd148f0970>, <rdkit.Chem.rdchem.Mol object at 0x7fdd148f1310>, <rdkit.Chem.rdchem.Mol object at 0x7fdd148f0040>, <rdkit.Chem.rdchem.Mol object at 0x7fdd148f1540>, <rdkit.Chem.rdchem.Mol object at 0x7fdd148f1460>]","[<rdkit.Chem.rdchem.Mol object at 0x7fdd148e2ff0>, <rdkit.Chem.rdchem.Mol object at 0x7fdd148e1f50>, <rdkit.Chem.rdchem.Mol object at 0x7fdd148e1310>, <rdkit.Chem.rdchem.Mol object at 0x7fdd148f0dd0>, <rdkit.Chem.rdchem.Mol object at 0x7fdd148f0cf0>, <rdkit.Chem.rdchem.Mol object at 0x7fdd148f0120>, <rdkit.Chem.rdchem.Mol object at 0x7fdd148f0a50>, '.', <rdkit.Chem.rdchem.Mol object at 0x7fdd148f0970>, <rdkit.Chem.rdchem.Mol object at 0x7fdd148f1310>, <rdkit.Chem.rdchem.Mol object at 0x7fdd148f0040>, <rdkit.Chem.rdchem.Mol object at 0x7fdd148f1540>, <rdkit.Chem.rdchem.Mol object at 0x7fdd148f1460>]","[0, 0, 0, 0, 2980, 2981, 2982, 2983, 2984, 2985, 2986, 1, 2987, 2988, 2989, 2990, 2991]"
PDBT-T1,ITIC-Th,-5.36,-3.43,-5.673333333333334,-3.908888888888889,1.0,CF,CN,25.0,MoOx,ZnO,9.6,9.59,0.88,67.1,"[<rdkit.Chem.rdchem.Mol object at 0x7fdd148e0dd0>, <rdkit.Chem.rdchem.Mol object at 0x7fdd148e26c0>, <rdkit.Chem.rdchem.Mol object at 0x7fdd148f15b0>, <rdkit.Chem.rdchem.Mol object at 0x7fdd148f0580>, <rdkit.Chem.rdchem.Mol object at 0x7fdd148f1850>, <rdkit.Chem.rdchem.Mol object at 0x7fdd148f1c40>]","[<rdkit.Chem.rdchem.Mol object at 0x7fdd148f2260>, <rdkit.Chem.rdchem.Mol object at 0x7fdd148f1930>, <rdkit.Chem.rdchem.Mol object at 0x7fdd148f14d0>, <rdkit.Chem.rdchem.Mol object at 0x7fdd148f1150>, <rdkit.Chem.rdchem.Mol object at 0x7fdd148f10e0>]","[<rdkit.Chem.rdchem.Mol object at 0x7fdd148e0dd0>, <rdkit.Chem.rdchem.Mol object at 0x7fdd148e26c0>, <rdkit.Chem.rdchem.Mol object at 0x7fdd148f15b0>, <rdkit.Chem.rdchem.Mol object at 0x7fdd148f0580>, <rdkit.Chem.rdchem.Mol object at 0x7fdd148f1850>, <rdkit.Chem.rdchem.Mol object at 0x7fdd148f1c40>, '.', <rdkit.Chem.rdchem.Mol object at 0x7fdd148f2260>, <rdkit.Chem.rdchem.Mol object at 0x7fdd148f1930>, <rdkit.Chem.rdchem.Mol object at 0x7fdd148f14d0>, <rdkit.Chem.rdchem.Mol object at 0x7fdd148f1150>, <rdkit.Chem.rdchem.Mol object at 0x7fdd148f10e0>]","[0, 0, 0, 0, 0, 2992, 2993, 2994, 2995, 2996, 2997, 1, 2998, 2999, 3000, 3001, 3002]"
P2F-EH,ITIC,-5.36,-3.04,-5.574146341463415,-3.915,1.0,CF,_,100.0,PEDOT:PSS,PFNDI-Br,6.13,6.15,0.983,50.48,"[<rdkit.Chem.rdchem.Mol object at 0x7fdd148e2110>, <rdkit.Chem.rdchem.Mol object at 0x7fdd148f0c10>, <rdkit.Chem.rdchem.Mol object at 0x7fdd148f2340>, <rdkit.Chem.rdchem.Mol object at 0x7fdd148f0ac0>, <rdkit.Chem.rdchem.Mol object at 0x7fdd148f17e0>, <rdkit.Chem.rdchem.Mol object at 0x7fdd148f1770>, <rdkit.Chem.rdchem.Mol object at 0x7fdd148f1620>]","[<rdkit.Chem.rdchem.Mol object at 0x7fdd148f2650>, <rdkit.Chem.rdchem.Mol object at 0x7fdd148f04a0>, <rdkit.Chem.rdchem.Mol object at 0x7fdd148f0e40>, <rdkit.Chem.rdchem.Mol object at 0x7fdd148f12a0>, <rdkit.Chem.rdchem.Mol object at 0x7fdd148f0d60>]","[<rdkit.Chem.rdchem.Mol object at 0x7fdd148e2110>, <rdkit.Chem.rdchem.Mol object at 0x7fdd148f0c10>, <rdkit.Chem.rdchem.Mol object at 0x7fdd148f2340>, <rdkit.Chem.rdchem.Mol object at 0x7fdd148f0ac0>, <rdkit.Chem.rdchem.Mol object at 0x7fdd148f17e0>, <rdkit.Chem.rdchem.Mol object at 0x7fdd148f1770>, <rdkit.Chem.rdchem.Mol object at 0x7fdd148f1620>, '.', <rdkit.Chem.rdchem.Mol object at 0x7fdd148f2650>, <rdkit.Chem.rdchem.Mol object at 0x7fdd148f04a0>, <rdkit.Chem.rdchem.Mol object at 0x7fdd148f0e40>, <rdkit.Chem.rdchem.Mol object at 0x7fdd148f12a0>, <rdkit.Chem.rdchem.Mol object at 0x7fdd148f0d60>]","[0, 0, 0, 0, 3003, 3004, 3005, 3006, 3007, 3008, 3009, 1, 3010, 3011, 3012, 3013, 3014]"
P2F-Ehp,ITIC,-5.38,-3.06,-5.574146341463415,-3.915,1.0,CF,_,100.0,PEDOT:PSS,PFNDI-Br,7.28,7.25,1.017,54.79,"[<rdkit.Chem.rdchem.Mol object at 0x7fdd148f1f50>, <rdkit.Chem.rdchem.Mol object at 0x7fdd148f22d0>, <rdkit.Chem.rdchem.Mol object at 0x7fdd148f1ee0>, <rdkit.Chem.rdchem.Mol object at 0x7fdd148f1a80>, <rdkit.Chem.rdchem.Mol object at 0x7fdd148f1b60>, <rdkit.Chem.rdchem.Mol object at 0x7fdd148f18c0>, <rdkit.Chem.rdchem.Mol object at 0x7fdd148f25e0>, <rdkit.Chem.rdchem.Mol object at 0x7fdd148f2030>]","[<rdkit.Chem.rdchem.Mol object at 0x7fdd148f2880>, <rdkit.Chem.rdchem.Mol object at 0x7fdd148f13f0>, <rdkit.Chem.rdchem.Mol object at 0x7fdd148f2180>, <rdkit.Chem.rdchem.Mol object at 0x7fdd148f0190>, <rdkit.Chem.rdchem.Mol object at 0x7fdd148f0f90>]","[<rdkit.Chem.rdchem.Mol object at 0x7fdd148f1f50>, <rdkit.Chem.rdchem.Mol object at 0x7fdd148f22d0>, <rdkit.Chem.rdchem.Mol object at 0x7fdd148f1ee0>, <rdkit.Chem.rdchem.Mol object at 0x7fdd148f1a80>, <rdkit.Chem.rdchem.Mol object at 0x7fdd148f1b60>, <rdkit.Chem.rdchem.Mol object at 0x7fdd148f18c0>, <rdkit.Chem.rdchem.Mol object at 0x7fdd148f25e0>, <rdkit.Chem.rdchem.Mol object at 0x7fdd148f2030>, '.', <rdkit.Chem.rdchem.Mol object at 0x7fdd148f2880>, <rdkit.Chem.rdchem.Mol object at 0x7fdd148f13f0>, <rdkit.Chem.rdchem.Mol object at 0x7fdd148f2180>, <rdkit.Chem.rdchem.Mol object at 0x7fdd148f0190>, <rdkit.Chem.rdchem.Mol object at 0x7fdd148f0f90>]","[0, 0, 0, 3015, 3016, 3017, 3018, 3019, 3020, 3021, 3022, 1, 3023, 3024, 3025, 3026, 3027]"
P2F-EO,ITIC,-5.41,-3.08,-5.574146341463415,-3.915,1.0,CF,_,100.0,PEDOT:PSS,PFNDI-Br,6.73,6.73,1.013,52.53,"[<rdkit.Chem.rdchem.Mol object at 0x7fdd148f2730>, <rdkit.Chem.rdchem.Mol object at 0x7fdd148f26c0>, <rdkit.Chem.rdchem.Mol object at 0x7fdd148f2810>, <rdkit.Chem.rdchem.Mol object at 0x7fdd148f2420>, <rdkit.Chem.rdchem.Mol object at 0x7fdd148f06d0>, <rdkit.Chem.rdchem.Mol object at 0x7fdd148f20a0>, <rdkit.Chem.rdchem.Mol object at 0x7fdd148f2ab0>, <rdkit.Chem.rdchem.Mol object at 0x7fdd148f2b20>]","[<rdkit.Chem.rdchem.Mol object at 0x7fdd148f2ea0>, <rdkit.Chem.rdchem.Mol object at 0x7fdd148f23b0>, <rdkit.Chem.rdchem.Mol object at 0x7fdd148f2500>, <rdkit.Chem.rdchem.Mol object at 0x7fdd148f1380>, <rdkit.Chem.rdchem.Mol object at 0x7fdd148f0200>]","[<rdkit.Chem.rdchem.Mol object at 0x7fdd148f2730>, <rdkit.Chem.rdchem.Mol object at 0x7fdd148f26c0>, <rdkit.Chem.rdchem.Mol object at 0x7fdd148f2810>, <rdkit.Chem.rdchem.Mol object at 0x7fdd148f2420>, <rdkit.Chem.rdchem.Mol object at 0x7fdd148f06d0>, <rdkit.Chem.rdchem.Mol object at 0x7fdd148f20a0>, <rdkit.Chem.rdchem.Mol object at 0x7fdd148f2ab0>, <rdkit.Chem.rdchem.Mol object at 0x7fdd148f2b20>, '.', <rdkit.Chem.rdchem.Mol object at 0x7fdd148f2ea0>, <rdkit.Chem.rdchem.Mol object at 0x7fdd148f23b0>, <rdkit.Chem.rdchem.Mol object at 0x7fdd148f2500>, <rdkit.Chem.rdchem.Mol object at 0x7fdd148f1380>, <rdkit.Chem.rdchem.Mol object at 0x7fdd148f0200>]","[0, 0, 0, 3028, 3029, 3030, 3031, 3032, 3033, 3034, 3035, 1, 3036, 3037, 3038, 3039, 3040]"
P2F-Ehp,IT-F,-5.38,-3.06,-5.66,-3.95,1.0,CF,_,100.0,PEDOT:PSS,PFNDI-Br,10.06,10.04,0.959,61.94,"[<rdkit.Chem.rdchem.Mol object at 0x7fdd148f2d50>, <rdkit.Chem.rdchem.Mol object at 0x7fdd148f2ce0>, <rdkit.Chem.rdchem.Mol object at 0x7fdd148f2e30>, <rdkit.Chem.rdchem.Mol object at 0x7fdd148f2c70>, <rdkit.Chem.rdchem.Mol object at 0x7fdd148f2110>, <rdkit.Chem.rdchem.Mol object at 0x7fdd148f0820>, <rdkit.Chem.rdchem.Mol object at 0x7fdd148f30d0>, <rdkit.Chem.rdchem.Mol object at 0x7fdd148f3140>]","[<rdkit.Chem.rdchem.Mol object at 0x7fdd148f34c0>, <rdkit.Chem.rdchem.Mol object at 0x7fdd148f2c00>, <rdkit.Chem.rdchem.Mol object at 0x7fdd148f28f0>, <rdkit.Chem.rdchem.Mol object at 0x7fdd148f1bd0>, <rdkit.Chem.rdchem.Mol object at 0x7fdd148f1d90>]","[<rdkit.Chem.rdchem.Mol object at 0x7fdd148f2d50>, <rdkit.Chem.rdchem.Mol object at 0x7fdd148f2ce0>, <rdkit.Chem.rdchem.Mol object at 0x7fdd148f2e30>, <rdkit.Chem.rdchem.Mol object at 0x7fdd148f2c70>, <rdkit.Chem.rdchem.Mol object at 0x7fdd148f2110>, <rdkit.Chem.rdchem.Mol object at 0x7fdd148f0820>, <rdkit.Chem.rdchem.Mol object at 0x7fdd148f30d0>, <rdkit.Chem.rdchem.Mol object at 0x7fdd148f3140>, '.', <rdkit.Chem.rdchem.Mol object at 0x7fdd148f34c0>, <rdkit.Chem.rdchem.Mol object at 0x7fdd148f2c00>, <rdkit.Chem.rdchem.Mol object at 0x7fdd148f28f0>, <rdkit.Chem.rdchem.Mol object at 0x7fdd148f1bd0>, <rdkit.Chem.rdchem.Mol object at 0x7fdd148f1d90>]","[0, 0, 0, 3041, 3042, 3043, 3044, 3045, 3046, 3047, 3048, 1, 3049, 3050, 3051, 3052, 3053]"
P2F-Ehp,IT-2F,-5.38,-3.06,-5.665,-4.095,1.0,CF,_,100.0,PEDOT:PSS,PFNDI-Br,12.96,12.97,0.891,74.09,"[<rdkit.Chem.rdchem.Mol object at 0x7fdd148f3370>, <rdkit.Chem.rdchem.Mol object at 0x7fdd148f3300>, <rdkit.Chem.rdchem.Mol object at 0x7fdd148f3450>, <rdkit.Chem.rdchem.Mol object at 0x7fdd148f3290>, <rdkit.Chem.rdchem.Mol object at 0x7fdd148f2b90>, <rdkit.Chem.rdchem.Mol object at 0x7fdd148f1a10>, <rdkit.Chem.rdchem.Mol object at 0x7fdd148f36f0>, <rdkit.Chem.rdchem.Mol object at 0x7fdd148f3760>]","[<rdkit.Chem.rdchem.Mol object at 0x7fdd148f3ae0>, <rdkit.Chem.rdchem.Mol object at 0x7fdd148f3220>, <rdkit.Chem.rdchem.Mol object at 0x7fdd148f2f10>, <rdkit.Chem.rdchem.Mol object at 0x7fdd148f1d20>, <rdkit.Chem.rdchem.Mol object at 0x7fdd148f27a0>]","[<rdkit.Chem.rdchem.Mol object at 0x7fdd148f3370>, <rdkit.Chem.rdchem.Mol object at 0x7fdd148f3300>, <rdkit.Chem.rdchem.Mol object at 0x7fdd148f3450>, <rdkit.Chem.rdchem.Mol object at 0x7fdd148f3290>, <rdkit.Chem.rdchem.Mol object at 0x7fdd148f2b90>, <rdkit.Chem.rdchem.Mol object at 0x7fdd148f1a10>, <rdkit.Chem.rdchem.Mol object at 0x7fdd148f36f0>, <rdkit.Chem.rdchem.Mol object at 0x7fdd148f3760>, '.', <rdkit.Chem.rdchem.Mol object at 0x7fdd148f3ae0>, <rdkit.Chem.rdchem.Mol object at 0x7fdd148f3220>, <rdkit.Chem.rdchem.Mol object at 0x7fdd148f2f10>, <rdkit.Chem.rdchem.Mol object at 0x7fdd148f1d20>, <rdkit.Chem.rdchem.Mol object at 0x7fdd148f27a0>]","[0, 0, 0, 3054, 3055, 3056, 3057, 3058, 3059, 3060, 3061, 1, 3062, 3063, 3064, 3065, 3066]"
PB3T,IT-M,-5.39,-3.37,-5.513571428571429,-3.808,1.5,Anisole,_,25.0,PEDOT:PSS,PFN-Br,11.9,11.91,1.0,63.0,"[<rdkit.Chem.rdchem.Mol object at 0x7fdd148f2f80>, <rdkit.Chem.rdchem.Mol object at 0x7fdd148f2dc0>, <rdkit.Chem.rdchem.Mol object at 0x7fdd148f3a00>, <rdkit.Chem.rdchem.Mol object at 0x7fdd148f2490>, <rdkit.Chem.rdchem.Mol object at 0x7fdd148f3840>, <rdkit.Chem.rdchem.Mol object at 0x7fdd148f19a0>, <rdkit.Chem.rdchem.Mol object at 0x7fdd148f31b0>, <rdkit.Chem.rdchem.Mol object at 0x7fdd148f3c30>, <rdkit.Chem.rdchem.Mol object at 0x7fdd148f8430>]","[<rdkit.Chem.rdchem.Mol object at 0x7fdd148f1fc0>, <rdkit.Chem.rdchem.Mol object at 0x7fdd148f33e0>, <rdkit.Chem.rdchem.Mol object at 0x7fdd148f1230>, <rdkit.Chem.rdchem.Mol object at 0x7fdd148f2570>, <rdkit.Chem.rdchem.Mol object at 0x7fdd148f3a70>]","[<rdkit.Chem.rdchem.Mol object at 0x7fdd148f2f80>, <rdkit.Chem.rdchem.Mol object at 0x7fdd148f2dc0>, <rdkit.Chem.rdchem.Mol object at 0x7fdd148f3a00>, <rdkit.Chem.rdchem.Mol object at 0x7fdd148f2490>, <rdkit.Chem.rdchem.Mol object at 0x7fdd148f3840>, <rdkit.Chem.rdchem.Mol object at 0x7fdd148f19a0>, <rdkit.Chem.rdchem.Mol object at 0x7fdd148f31b0>, <rdkit.Chem.rdchem.Mol object at 0x7fdd148f3c30>, <rdkit.Chem.rdchem.Mol object at 0x7fdd148f8430>, '.', <rdkit.Chem.rdchem.Mol object at 0x7fdd148f1fc0>, <rdkit.Chem.rdchem.Mol object at 0x7fdd148f33e0>, <rdkit.Chem.rdchem.Mol object at 0x7fdd148f1230>, <rdkit.Chem.rdchem.Mol object at 0x7fdd148f2570>, <rdkit.Chem.rdchem.Mol object at 0x7fdd148f3a70>]","[0, 0, 3067, 3068, 3069, 3070, 3071, 3072, 3073, 3074, 3075, 1, 3076, 3077, 3078, 3079, 3080]"
PBDB-T,IT-M,-5.297714285714285,-3.4170000000000003,-5.513571428571429,-3.808,1.0,CB,DIO,100.0,MoOx,EDTA-ZnO,12.1,12.1,0.953,73.2,"[<rdkit.Chem.rdchem.Mol object at 0x7fdd148f3bc0>, <rdkit.Chem.rdchem.Mol object at 0x7fdd148f38b0>, <rdkit.Chem.rdchem.Mol object at 0x7fdd148f2ff0>, <rdkit.Chem.rdchem.Mol object at 0x7fdd148f8270>, <rdkit.Chem.rdchem.Mol object at 0x7fdd148f8ac0>]","[<rdkit.Chem.rdchem.Mol object at 0x7fdd148f3990>, <rdkit.Chem.rdchem.Mol object at 0x7fdd148f0660>, <rdkit.Chem.rdchem.Mol object at 0x7fdd148f1e00>, <rdkit.Chem.rdchem.Mol object at 0x7fdd148f3f40>, <rdkit.Chem.rdchem.Mol object at 0x7fdd148f8510>]","[<rdkit.Chem.rdchem.Mol object at 0x7fdd148f3bc0>, <rdkit.Chem.rdchem.Mol object at 0x7fdd148f38b0>, <rdkit.Chem.rdchem.Mol object at 0x7fdd148f2ff0>, <rdkit.Chem.rdchem.Mol object at 0x7fdd148f8270>, <rdkit.Chem.rdchem.Mol object at 0x7fdd148f8ac0>, '.', <rdkit.Chem.rdchem.Mol object at 0x7fdd148f3990>, <rdkit.Chem.rdchem.Mol object at 0x7fdd148f0660>, <rdkit.Chem.rdchem.Mol object at 0x7fdd148f1e00>, <rdkit.Chem.rdchem.Mol object at 0x7fdd148f3f40>, <rdkit.Chem.rdchem.Mol object at 0x7fdd148f8510>]","[0, 0, 0, 0, 0, 0, 3081, 3082, 3083, 3084, 3085, 1, 3086, 3087, 3088, 3089, 3090]"
PBDB-T,ITIC,-5.297714285714285,-3.4170000000000003,-5.574146341463415,-3.915,1.0,CB,DIO,160.0,MoOx,ZnO,10.02,10.02,0.86,64.29,"[<rdkit.Chem.rdchem.Mol object at 0x7fdd148f3920>, <rdkit.Chem.rdchem.Mol object at 0x7fdd148f8740>, <rdkit.Chem.rdchem.Mol object at 0x7fdd148f8dd0>, <rdkit.Chem.rdchem.Mol object at 0x7fdd148f8120>, <rdkit.Chem.rdchem.Mol object at 0x7fdd148f90e0>]","[<rdkit.Chem.rdchem.Mol object at 0x7fdd148f35a0>, <rdkit.Chem.rdchem.Mol object at 0x7fdd148f3df0>, <rdkit.Chem.rdchem.Mol object at 0x7fdd148f3b50>, <rdkit.Chem.rdchem.Mol object at 0x7fdd148f3610>, <rdkit.Chem.rdchem.Mol object at 0x7fdd148f8190>]","[<rdkit.Chem.rdchem.Mol object at 0x7fdd148f3920>, <rdkit.Chem.rdchem.Mol object at 0x7fdd148f8740>, <rdkit.Chem.rdchem.Mol object at 0x7fdd148f8dd0>, <rdkit.Chem.rdchem.Mol object at 0x7fdd148f8120>, <rdkit.Chem.rdchem.Mol object at 0x7fdd148f90e0>, '.', <rdkit.Chem.rdchem.Mol object at 0x7fdd148f35a0>, <rdkit.Chem.rdchem.Mol object at 0x7fdd148f3df0>, <rdkit.Chem.rdchem.Mol object at 0x7fdd148f3b50>, <rdkit.Chem.rdchem.Mol object at 0x7fdd148f3610>, <rdkit.Chem.rdchem.Mol object at 0x7fdd148f8190>]","[0, 0, 0, 0, 0, 0, 3091, 3092, 3093, 3094, 3095, 1, 3096, 3097, 3098, 3099, 3100]"