Donor,Acceptor,HOMO_D_eV,LUMO_D_eV,HOMO_A_eV,LUMO_A_eV,D_A_ratio_m_m,solvent,solvent_additive,annealing_temperature,hole_contact_layer,electron_contact_layer,PCE_percent,calc_PCE_percent,Voc_V,FF_percent,Donor_BRICS,Acceptor_BRICS,DA_pair_BRICS,DA_tokenized_BRICS
PBDB-T,IDTC,-5.297714285714285,-3.4170000000000003,-5.29,-3.37,1.0,CF,_,160.0,PEDOT:PSS,PDINO,9.35,9.36,0.917,61.61,"[<rdkit.Chem.rdchem.Mol object at 0x7fdd147ee8f0>, <rdkit.Chem.rdchem.Mol object at 0x7fdd147fcac0>, <rdkit.Chem.rdchem.Mol object at 0x7fdd147fc900>, <rdkit.Chem.rdchem.Mol object at 0x7fdd147fc200>, <rdkit.Chem.rdchem.Mol object at 0x7fdd147fd070>]","[<rdkit.Chem.rdchem.Mol object at 0x7fdd147f07b0>, <rdkit.Chem.rdchem.Mol object at 0x7fdd147f28f0>, <rdkit.Chem.rdchem.Mol object at 0x7fdd147f3ca0>, <rdkit.Chem.rdchem.Mol object at 0x7fdd147f2490>, <rdkit.Chem.rdchem.Mol object at 0x7fdd147f2c70>, <rdkit.Chem.rdchem.Mol object at 0x7fdd147fe500>, <rdkit.Chem.rdchem.Mol object at 0x7fdd147f0eb0>]","[<rdkit.Chem.rdchem.Mol object at 0x7fdd147ee8f0>, <rdkit.Chem.rdchem.Mol object at 0x7fdd147fcac0>, <rdkit.Chem.rdchem.Mol object at 0x7fdd147fc900>, <rdkit.Chem.rdchem.Mol object at 0x7fdd147fc200>, <rdkit.Chem.rdchem.Mol object at 0x7fdd147fd070>, '.', <rdkit.Chem.rdchem.Mol object at 0x7fdd147f07b0>, <rdkit.Chem.rdchem.Mol object at 0x7fdd147f28f0>, <rdkit.Chem.rdchem.Mol object at 0x7fdd147f3ca0>, <rdkit.Chem.rdchem.Mol object at 0x7fdd147f2490>, <rdkit.Chem.rdchem.Mol object at 0x7fdd147f2c70>, <rdkit.Chem.rdchem.Mol object at 0x7fdd147fe500>, <rdkit.Chem.rdchem.Mol object at 0x7fdd147f0eb0>]","[0, 0, 0, 0, 6107, 6108, 6109, 6110, 6111, 1, 6112, 6113, 6114, 6115, 6116, 6117, 6118]"
PBDB-T,IDTO,-5.297714285714285,-3.4170000000000003,-5.11,-3.38,1.0,CF,_,160.0,PEDOT:PSS,PDINO,10.02,10.02,0.943,65.41,"[<rdkit.Chem.rdchem.Mol object at 0x7fdd147f2f80>, <rdkit.Chem.rdchem.Mol object at 0x7fdd147fe0a0>, <rdkit.Chem.rdchem.Mol object at 0x7fdd147fe180>, <rdkit.Chem.rdchem.Mol object at 0x7fdd147fdf50>, <rdkit.Chem.rdchem.Mol object at 0x7fdd147fcdd0>]","[<rdkit.Chem.rdchem.Mol object at 0x7fdd147f2e30>, <rdkit.Chem.rdchem.Mol object at 0x7fdd147f36f0>, <rdkit.Chem.rdchem.Mol object at 0x7fdd147fce40>, <rdkit.Chem.rdchem.Mol object at 0x7fdd147f2420>, <rdkit.Chem.rdchem.Mol object at 0x7fdd147f1700>, <rdkit.Chem.rdchem.Mol object at 0x7fdd147fdc40>, <rdkit.Chem.rdchem.Mol object at 0x7fdd147fe2d0>, <rdkit.Chem.rdchem.Mol object at 0x7fdd147fde70>]","[<rdkit.Chem.rdchem.Mol object at 0x7fdd147f2f80>, <rdkit.Chem.rdchem.Mol object at 0x7fdd147fe0a0>, <rdkit.Chem.rdchem.Mol object at 0x7fdd147fe180>, <rdkit.Chem.rdchem.Mol object at 0x7fdd147fdf50>, <rdkit.Chem.rdchem.Mol object at 0x7fdd147fcdd0>, '.', <rdkit.Chem.rdchem.Mol object at 0x7fdd147f2e30>, <rdkit.Chem.rdchem.Mol object at 0x7fdd147f36f0>, <rdkit.Chem.rdchem.Mol object at 0x7fdd147fce40>, <rdkit.Chem.rdchem.Mol object at 0x7fdd147f2420>, <rdkit.Chem.rdchem.Mol object at 0x7fdd147f1700>, <rdkit.Chem.rdchem.Mol object at 0x7fdd147fdc40>, <rdkit.Chem.rdchem.Mol object at 0x7fdd147fe2d0>, <rdkit.Chem.rdchem.Mol object at 0x7fdd147fde70>]","[0, 0, 0, 6119, 6120, 6121, 6122, 6123, 1, 6124, 6125, 6126, 6127, 6128, 6129, 6130, 6131]"
PTB7-Th,BTA7,-5.204782608695651,-3.5391891891891896,-5.56,-3.66,0.5,CF,DPE,80.0,PEDOT:PSS,Ca,4.6,4.6,1.05,42.0,"[<rdkit.Chem.rdchem.Mol object at 0x7fdd147f27a0>, <rdkit.Chem.rdchem.Mol object at 0x7fdd147f1930>, <rdkit.Chem.rdchem.Mol object at 0x7fdd147f0900>, <rdkit.Chem.rdchem.Mol object at 0x7fdd147fcb30>, <rdkit.Chem.rdchem.Mol object at 0x7fdd147fe260>, <rdkit.Chem.rdchem.Mol object at 0x7fdd147fe5e0>, <rdkit.Chem.rdchem.Mol object at 0x7fdd147fdcb0>]","[<rdkit.Chem.rdchem.Mol object at 0x7fdd147f2650>, <rdkit.Chem.rdchem.Mol object at 0x7fdd147fe420>, <rdkit.Chem.rdchem.Mol object at 0x7fdd147fe1f0>, <rdkit.Chem.rdchem.Mol object at 0x7fdd147fdd90>, <rdkit.Chem.rdchem.Mol object at 0x7fdd147fef10>, <rdkit.Chem.rdchem.Mol object at 0x7fdd147fee30>]","[<rdkit.Chem.rdchem.Mol object at 0x7fdd147f27a0>, <rdkit.Chem.rdchem.Mol object at 0x7fdd147f1930>, <rdkit.Chem.rdchem.Mol object at 0x7fdd147f0900>, <rdkit.Chem.rdchem.Mol object at 0x7fdd147fcb30>, <rdkit.Chem.rdchem.Mol object at 0x7fdd147fe260>, <rdkit.Chem.rdchem.Mol object at 0x7fdd147fe5e0>, <rdkit.Chem.rdchem.Mol object at 0x7fdd147fdcb0>, '.', <rdkit.Chem.rdchem.Mol object at 0x7fdd147f2650>, <rdkit.Chem.rdchem.Mol object at 0x7fdd147fe420>, <rdkit.Chem.rdchem.Mol object at 0x7fdd147fe1f0>, <rdkit.Chem.rdchem.Mol object at 0x7fdd147fdd90>, <rdkit.Chem.rdchem.Mol object at 0x7fdd147fef10>, <rdkit.Chem.rdchem.Mol object at 0x7fdd147fee30>]","[0, 0, 0, 6132, 6133, 6134, 6135, 6136, 6137, 6138, 1, 6139, 6140, 6141, 6142, 6143, 6144]"
PTB7-Th,BTA1,-5.204782608695651,-3.5391891891891896,-5.510000000000001,-3.5499999999999994,0.5,CF,DPE,80.0,PEDOT:PSS,Ca,0.06,0.05,0.93,29.0,"[<rdkit.Chem.rdchem.Mol object at 0x7fdd147fc2e0>, <rdkit.Chem.rdchem.Mol object at 0x7fdd147fedc0>, <rdkit.Chem.rdchem.Mol object at 0x7fdd147fed50>, <rdkit.Chem.rdchem.Mol object at 0x7fdd147fe9d0>, <rdkit.Chem.rdchem.Mol object at 0x7fdd147fe960>, <rdkit.Chem.rdchem.Mol object at 0x7fdd147fec00>, <rdkit.Chem.rdchem.Mol object at 0x7fdd147fca50>]","[<rdkit.Chem.rdchem.Mol object at 0x7fdd147fc0b0>, <rdkit.Chem.rdchem.Mol object at 0x7fdd147fe8f0>, <rdkit.Chem.rdchem.Mol object at 0x7fdd147fe730>, <rdkit.Chem.rdchem.Mol object at 0x7fdd147fcba0>, <rdkit.Chem.rdchem.Mol object at 0x7fdd147fea40>, <rdkit.Chem.rdchem.Mol object at 0x7fdd147ff5a0>, <rdkit.Chem.rdchem.Mol object at 0x7fdd147ff4c0>]","[<rdkit.Chem.rdchem.Mol object at 0x7fdd147fc2e0>, <rdkit.Chem.rdchem.Mol object at 0x7fdd147fedc0>, <rdkit.Chem.rdchem.Mol object at 0x7fdd147fed50>, <rdkit.Chem.rdchem.Mol object at 0x7fdd147fe9d0>, <rdkit.Chem.rdchem.Mol object at 0x7fdd147fe960>, <rdkit.Chem.rdchem.Mol object at 0x7fdd147fec00>, <rdkit.Chem.rdchem.Mol object at 0x7fdd147fca50>, '.', <rdkit.Chem.rdchem.Mol object at 0x7fdd147fc0b0>, <rdkit.Chem.rdchem.Mol object at 0x7fdd147fe8f0>, <rdkit.Chem.rdchem.Mol object at 0x7fdd147fe730>, <rdkit.Chem.rdchem.Mol object at 0x7fdd147fcba0>, <rdkit.Chem.rdchem.Mol object at 0x7fdd147fea40>, <rdkit.Chem.rdchem.Mol object at 0x7fdd147ff5a0>, <rdkit.Chem.rdchem.Mol object at 0x7fdd147ff4c0>]","[0, 0, 6145, 6146, 6147, 6148, 6149, 6150, 6151, 1, 6152, 6153, 6154, 6155, 6156, 6157, 6158]"
PTB7-Th,BTA2,-5.204782608695651,-3.5391891891891896,-5.43,-3.3800000000000003,0.5,CF,DPE,80.0,PEDOT:PSS,Ca,0.01,0.01,1.01,27.0,"[<rdkit.Chem.rdchem.Mol object at 0x7fdd147fdd20>, <rdkit.Chem.rdchem.Mol object at 0x7fdd147ff450>, <rdkit.Chem.rdchem.Mol object at 0x7fdd147ff3e0>, <rdkit.Chem.rdchem.Mol object at 0x7fdd147ff060>, <rdkit.Chem.rdchem.Mol object at 0x7fdd147feff0>, <rdkit.Chem.rdchem.Mol object at 0x7fdd147ff290>, <rdkit.Chem.rdchem.Mol object at 0x7fdd147fd310>]","[<rdkit.Chem.rdchem.Mol object at 0x7fdd147fda80>, <rdkit.Chem.rdchem.Mol object at 0x7fdd147feb20>, <rdkit.Chem.rdchem.Mol object at 0x7fdd147fdb60>, <rdkit.Chem.rdchem.Mol object at 0x7fdd147fd150>, <rdkit.Chem.rdchem.Mol object at 0x7fdd147ff0d0>, <rdkit.Chem.rdchem.Mol object at 0x7fdd147ffbc0>, <rdkit.Chem.rdchem.Mol object at 0x7fdd147ffae0>]","[<rdkit.Chem.rdchem.Mol object at 0x7fdd147fdd20>, <rdkit.Chem.rdchem.Mol object at 0x7fdd147ff450>, <rdkit.Chem.rdchem.Mol object at 0x7fdd147ff3e0>, <rdkit.Chem.rdchem.Mol object at 0x7fdd147ff060>, <rdkit.Chem.rdchem.Mol object at 0x7fdd147feff0>, <rdkit.Chem.rdchem.Mol object at 0x7fdd147ff290>, <rdkit.Chem.rdchem.Mol object at 0x7fdd147fd310>, '.', <rdkit.Chem.rdchem.Mol object at 0x7fdd147fda80>, <rdkit.Chem.rdchem.Mol object at 0x7fdd147feb20>, <rdkit.Chem.rdchem.Mol object at 0x7fdd147fdb60>, <rdkit.Chem.rdchem.Mol object at 0x7fdd147fd150>, <rdkit.Chem.rdchem.Mol object at 0x7fdd147ff0d0>, <rdkit.Chem.rdchem.Mol object at 0x7fdd147ffbc0>, <rdkit.Chem.rdchem.Mol object at 0x7fdd147ffae0>]","[0, 0, 6159, 6160, 6161, 6162, 6163, 6164, 6165, 1, 6166, 6167, 6168, 6169, 6170, 6171, 6172]"
P3HT,BTA1,-5.057777777777777,-2.989444444444445,-5.510000000000001,-3.5499999999999994,1.667,CF,CN,100.0,PEDOT:PSS,Ca,5.24,5.24,1.02,70.0,"[<rdkit.Chem.rdchem.Mol object at 0x7fdd147f0660>, <rdkit.Chem.rdchem.Mol object at 0x7fdd147fd0e0>, <rdkit.Chem.rdchem.Mol object at 0x7fdd147fcc10>, <rdkit.Chem.rdchem.Mol object at 0x7fdd147fe7a0>]","[<rdkit.Chem.rdchem.Mol object at 0x7fdd147fc580>, <rdkit.Chem.rdchem.Mol object at 0x7fdd147fc040>, <rdkit.Chem.rdchem.Mol object at 0x7fdd147fc430>, <rdkit.Chem.rdchem.Mol object at 0x7fdd147fc190>, <rdkit.Chem.rdchem.Mol object at 0x7fdd147fc7b0>, <rdkit.Chem.rdchem.Mol object at 0x7fdd146100b0>, <rdkit.Chem.rdchem.Mol object at 0x7fdd147ffca0>]","[<rdkit.Chem.rdchem.Mol object at 0x7fdd147f0660>, <rdkit.Chem.rdchem.Mol object at 0x7fdd147fd0e0>, <rdkit.Chem.rdchem.Mol object at 0x7fdd147fcc10>, <rdkit.Chem.rdchem.Mol object at 0x7fdd147fe7a0>, '.', <rdkit.Chem.rdchem.Mol object at 0x7fdd147fc580>, <rdkit.Chem.rdchem.Mol object at 0x7fdd147fc040>, <rdkit.Chem.rdchem.Mol object at 0x7fdd147fc430>, <rdkit.Chem.rdchem.Mol object at 0x7fdd147fc190>, <rdkit.Chem.rdchem.Mol object at 0x7fdd147fc7b0>, <rdkit.Chem.rdchem.Mol object at 0x7fdd146100b0>, <rdkit.Chem.rdchem.Mol object at 0x7fdd147ffca0>]","[0, 0, 0, 0, 0, 6173, 6174, 6175, 6176, 1, 6177, 6178, 6179, 6180, 6181, 6182, 6183]"
P3HT,BTA2,-5.057777777777777,-2.989444444444445,-5.43,-3.3800000000000003,0.6,CF,DIO,100.0,PEDOT:PSS,Ca,4.5,4.5,1.22,60.0,"[<rdkit.Chem.rdchem.Mol object at 0x7fdd147f2180>, <rdkit.Chem.rdchem.Mol object at 0x7fdd147fff40>, <rdkit.Chem.rdchem.Mol object at 0x7fdd147fc6d0>, <rdkit.Chem.rdchem.Mol object at 0x7fdd147fcd60>]","[<rdkit.Chem.rdchem.Mol object at 0x7fdd147feab0>, <rdkit.Chem.rdchem.Mol object at 0x7fdd147fdfc0>, <rdkit.Chem.rdchem.Mol object at 0x7fdd147fe030>, <rdkit.Chem.rdchem.Mol object at 0x7fdd147fcf90>, <rdkit.Chem.rdchem.Mol object at 0x7fdd147fd930>, <rdkit.Chem.rdchem.Mol object at 0x7fdd146105f0>, <rdkit.Chem.rdchem.Mol object at 0x7fdd147fe6c0>]","[<rdkit.Chem.rdchem.Mol object at 0x7fdd147f2180>, <rdkit.Chem.rdchem.Mol object at 0x7fdd147fff40>, <rdkit.Chem.rdchem.Mol object at 0x7fdd147fc6d0>, <rdkit.Chem.rdchem.Mol object at 0x7fdd147fcd60>, '.', <rdkit.Chem.rdchem.Mol object at 0x7fdd147feab0>, <rdkit.Chem.rdchem.Mol object at 0x7fdd147fdfc0>, <rdkit.Chem.rdchem.Mol object at 0x7fdd147fe030>, <rdkit.Chem.rdchem.Mol object at 0x7fdd147fcf90>, <rdkit.Chem.rdchem.Mol object at 0x7fdd147fd930>, <rdkit.Chem.rdchem.Mol object at 0x7fdd146105f0>, <rdkit.Chem.rdchem.Mol object at 0x7fdd147fe6c0>]","[0, 0, 0, 0, 0, 6184, 6185, 6186, 6187, 1, 6188, 6189, 6190, 6191, 6192, 6193, 6194]"
P3HT,BT2,-5.057777777777777,-2.989444444444445,-5.5,-3.53,1.5,CF,_,150.0,PEDOT:PSS,Ca,4.93,4.93,0.97,67.0,"[<rdkit.Chem.rdchem.Mol object at 0x7fdd147ff6f0>, <rdkit.Chem.rdchem.Mol object at 0x7fdd147fe340>, <rdkit.Chem.rdchem.Mol object at 0x7fdd147fd1c0>, <rdkit.Chem.rdchem.Mol object at 0x7fdd147fcf20>]","[<rdkit.Chem.rdchem.Mol object at 0x7fdd147fd4d0>, <rdkit.Chem.rdchem.Mol object at 0x7fdd147fc820>, <rdkit.Chem.rdchem.Mol object at 0x7fdd147ff610>, <rdkit.Chem.rdchem.Mol object at 0x7fdd147fe3b0>, <rdkit.Chem.rdchem.Mol object at 0x7fdd147fc3c0>, <rdkit.Chem.rdchem.Mol object at 0x7fdd147ffa00>]","[<rdkit.Chem.rdchem.Mol object at 0x7fdd147ff6f0>, <rdkit.Chem.rdchem.Mol object at 0x7fdd147fe340>, <rdkit.Chem.rdchem.Mol object at 0x7fdd147fd1c0>, <rdkit.Chem.rdchem.Mol object at 0x7fdd147fcf20>, '.', <rdkit.Chem.rdchem.Mol object at 0x7fdd147fd4d0>, <rdkit.Chem.rdchem.Mol object at 0x7fdd147fc820>, <rdkit.Chem.rdchem.Mol object at 0x7fdd147ff610>, <rdkit.Chem.rdchem.Mol object at 0x7fdd147fe3b0>, <rdkit.Chem.rdchem.Mol object at 0x7fdd147fc3c0>, <rdkit.Chem.rdchem.Mol object at 0x7fdd147ffa00>]","[0, 0, 0, 0, 0, 0, 6195, 6196, 6197, 6198, 1, 6199, 6200, 6201, 6202, 6203, 6204]"
P3HT,BT2b,-5.057777777777777,-2.989444444444445,-5.41,-3.56,1.0,CF,_,150.0,PEDOT:PSS,Ca,6.08,6.08,0.92,66.0,"[<rdkit.Chem.rdchem.Mol object at 0x7fdd147feea0>, <rdkit.Chem.rdchem.Mol object at 0x7fdd147ffe60>, <rdkit.Chem.rdchem.Mol object at 0x7fdd147fde00>, <rdkit.Chem.rdchem.Mol object at 0x7fdd147fc970>]","[<rdkit.Chem.rdchem.Mol object at 0x7fdd147fe650>, <rdkit.Chem.rdchem.Mol object at 0x7fdd147ff140>, <rdkit.Chem.rdchem.Mol object at 0x7fdd147fd9a0>, <rdkit.Chem.rdchem.Mol object at 0x7fdd147fd230>, <rdkit.Chem.rdchem.Mol object at 0x7fdd147fd3f0>]","[<rdkit.Chem.rdchem.Mol object at 0x7fdd147feea0>, <rdkit.Chem.rdchem.Mol object at 0x7fdd147ffe60>, <rdkit.Chem.rdchem.Mol object at 0x7fdd147fde00>, <rdkit.Chem.rdchem.Mol object at 0x7fdd147fc970>, '.', <rdkit.Chem.rdchem.Mol object at 0x7fdd147fe650>, <rdkit.Chem.rdchem.Mol object at 0x7fdd147ff140>, <rdkit.Chem.rdchem.Mol object at 0x7fdd147fd9a0>, <rdkit.Chem.rdchem.Mol object at 0x7fdd147fd230>, <rdkit.Chem.rdchem.Mol object at 0x7fdd147fd3f0>]","[0, 0, 0, 0, 0, 0, 0, 6205, 6206, 6207, 6208, 1, 6209, 6210, 6211, 6212, 6213]"
PBDB-T,CDTCN,-5.297714285714285,-3.4170000000000003,-5.39,-3.8,1.0,CB,DIO,80.0,MoOx,ZnO,6.23,6.22,0.96,57.58,"[<rdkit.Chem.rdchem.Mol object at 0x7fdd147fece0>, <rdkit.Chem.rdchem.Mol object at 0x7fdd147fe810>, <rdkit.Chem.rdchem.Mol object at 0x7fdd147fd460>, <rdkit.Chem.rdchem.Mol object at 0x7fdd147fe110>, <rdkit.Chem.rdchem.Mol object at 0x7fdd147ff760>]","[<rdkit.Chem.rdchem.Mol object at 0x7fdd147ffdf0>, <rdkit.Chem.rdchem.Mol object at 0x7fdd147fd620>, <rdkit.Chem.rdchem.Mol object at 0x7fdd147fc5f0>, <rdkit.Chem.rdchem.Mol object at 0x7fdd147fd850>, <rdkit.Chem.rdchem.Mol object at 0x7fdd147ff220>, <rdkit.Chem.rdchem.Mol object at 0x7fdd146104a0>, <rdkit.Chem.rdchem.Mol object at 0x7fdd147fd7e0>]","[<rdkit.Chem.rdchem.Mol object at 0x7fdd147fece0>, <rdkit.Chem.rdchem.Mol object at 0x7fdd147fe810>, <rdkit.Chem.rdchem.Mol object at 0x7fdd147fd460>, <rdkit.Chem.rdchem.Mol object at 0x7fdd147fe110>, <rdkit.Chem.rdchem.Mol object at 0x7fdd147ff760>, '.', <rdkit.Chem.rdchem.Mol object at 0x7fdd147ffdf0>, <rdkit.Chem.rdchem.Mol object at 0x7fdd147fd620>, <rdkit.Chem.rdchem.Mol object at 0x7fdd147fc5f0>, <rdkit.Chem.rdchem.Mol object at 0x7fdd147fd850>, <rdkit.Chem.rdchem.Mol object at 0x7fdd147ff220>, <rdkit.Chem.rdchem.Mol object at 0x7fdd146104a0>, <rdkit.Chem.rdchem.Mol object at 0x7fdd147fd7e0>]","[0, 0, 0, 0, 6214, 6215, 6216, 6217, 6218, 1, 6219, 6220, 6221, 6222, 6223, 6224, 6225]"
PTB7-Th,IHIC,-5.204782608695651,-3.5391891891891896,-5.45,-3.93,0.667,DCB,CN,25.0,MoOx,ZnO,9.77,9.76,0.754,68.1,"[<rdkit.Chem.rdchem.Mol object at 0x7fdd147fdee0>, <rdkit.Chem.rdchem.Mol object at 0x7fdd147fe880>, <rdkit.Chem.rdchem.Mol object at 0x7fdd147ff370>, <rdkit.Chem.rdchem.Mol object at 0x7fdd147fd770>, <rdkit.Chem.rdchem.Mol object at 0x7fdd147feb90>, <rdkit.Chem.rdchem.Mol object at 0x7fdd147fc350>, <rdkit.Chem.rdchem.Mol object at 0x7fdd147fd700>]","[<rdkit.Chem.rdchem.Mol object at 0x7fdd147fd8c0>, <rdkit.Chem.rdchem.Mol object at 0x7fdd147ff530>, <rdkit.Chem.rdchem.Mol object at 0x7fdd147ffa70>, <rdkit.Chem.rdchem.Mol object at 0x7fdd147fc890>, <rdkit.Chem.rdchem.Mol object at 0x7fdd147ffb50>]","[<rdkit.Chem.rdchem.Mol object at 0x7fdd147fdee0>, <rdkit.Chem.rdchem.Mol object at 0x7fdd147fe880>, <rdkit.Chem.rdchem.Mol object at 0x7fdd147ff370>, <rdkit.Chem.rdchem.Mol object at 0x7fdd147fd770>, <rdkit.Chem.rdchem.Mol object at 0x7fdd147feb90>, <rdkit.Chem.rdchem.Mol object at 0x7fdd147fc350>, <rdkit.Chem.rdchem.Mol object at 0x7fdd147fd700>, '.', <rdkit.Chem.rdchem.Mol object at 0x7fdd147fd8c0>, <rdkit.Chem.rdchem.Mol object at 0x7fdd147ff530>, <rdkit.Chem.rdchem.Mol object at 0x7fdd147ffa70>, <rdkit.Chem.rdchem.Mol object at 0x7fdd147fc890>, <rdkit.Chem.rdchem.Mol object at 0x7fdd147ffb50>]","[0, 0, 0, 0, 6226, 6227, 6228, 6229, 6230, 6231, 6232, 1, 6233, 6234, 6235, 6236, 6237]"
PBDB-T,ITIC,-5.297714285714285,-3.4170000000000003,-5.574146341463415,-3.915,1.0,CB,DIO,25.0,MoOx,ZnO,7.4,7.26,0.88,59.8,"[<rdkit.Chem.rdchem.Mol object at 0x7fdd147fe570>, <rdkit.Chem.rdchem.Mol object at 0x7fdd147fd540>, <rdkit.Chem.rdchem.Mol object at 0x7fdd147fda10>, <rdkit.Chem.rdchem.Mol object at 0x7fdd147ffd10>, <rdkit.Chem.rdchem.Mol object at 0x7fdd14610a50>]","[<rdkit.Chem.rdchem.Mol object at 0x7fdd147ff680>, <rdkit.Chem.rdchem.Mol object at 0x7fdd147ff300>, <rdkit.Chem.rdchem.Mol object at 0x7fdd147fc120>, <rdkit.Chem.rdchem.Mol object at 0x7fdd147fec70>, <rdkit.Chem.rdchem.Mol object at 0x7fdd146106d0>]","[<rdkit.Chem.rdchem.Mol object at 0x7fdd147fe570>, <rdkit.Chem.rdchem.Mol object at 0x7fdd147fd540>, <rdkit.Chem.rdchem.Mol object at 0x7fdd147fda10>, <rdkit.Chem.rdchem.Mol object at 0x7fdd147ffd10>, <rdkit.Chem.rdchem.Mol object at 0x7fdd14610a50>, '.', <rdkit.Chem.rdchem.Mol object at 0x7fdd147ff680>, <rdkit.Chem.rdchem.Mol object at 0x7fdd147ff300>, <rdkit.Chem.rdchem.Mol object at 0x7fdd147fc120>, <rdkit.Chem.rdchem.Mol object at 0x7fdd147fec70>, <rdkit.Chem.rdchem.Mol object at 0x7fdd146106d0>]","[0, 0, 0, 0, 0, 0, 6238, 6239, 6240, 6241, 6242, 1, 6243, 6244, 6245, 6246, 6247]"
PBDTTT-C-T,IDT-2BM,-5.128,-3.268,-5.586666666666666,-4.083333333333333,1.5,o-DCB,CN,25.0,PEDOT:PSS,Ca,4.26,4.26,0.766,55.1,"[<rdkit.Chem.rdchem.Mol object at 0x7fdd147fccf0>, <rdkit.Chem.rdchem.Mol object at 0x7fdd147fe490>, <rdkit.Chem.rdchem.Mol object at 0x7fdd147fc270>, <rdkit.Chem.rdchem.Mol object at 0x7fdd147fdaf0>, <rdkit.Chem.rdchem.Mol object at 0x7fdd14610190>]","[<rdkit.Chem.rdchem.Mol object at 0x7fdd147fd380>, <rdkit.Chem.rdchem.Mol object at 0x7fdd147ff840>, <rdkit.Chem.rdchem.Mol object at 0x7fdd147ff7d0>, <rdkit.Chem.rdchem.Mol object at 0x7fdd14610580>, <rdkit.Chem.rdchem.Mol object at 0x7fdd14610740>]","[<rdkit.Chem.rdchem.Mol object at 0x7fdd147fccf0>, <rdkit.Chem.rdchem.Mol object at 0x7fdd147fe490>, <rdkit.Chem.rdchem.Mol object at 0x7fdd147fc270>, <rdkit.Chem.rdchem.Mol object at 0x7fdd147fdaf0>, <rdkit.Chem.rdchem.Mol object at 0x7fdd14610190>, '.', <rdkit.Chem.rdchem.Mol object at 0x7fdd147fd380>, <rdkit.Chem.rdchem.Mol object at 0x7fdd147ff840>, <rdkit.Chem.rdchem.Mol object at 0x7fdd147ff7d0>, <rdkit.Chem.rdchem.Mol object at 0x7fdd14610580>, <rdkit.Chem.rdchem.Mol object at 0x7fdd14610740>]","[0, 0, 0, 0, 0, 0, 6248, 6249, 6250, 6251, 6252, 1, 6253, 6254, 6255, 6256, 6257]"
PBDTTT-C-T,IDTT-2BM,-5.128,-3.268,-5.5,-3.8,1.5,o-DCB,DIO,25.0,PEDOT:PSS,Ca,4.81,4.8,0.851,57.2,"[<rdkit.Chem.rdchem.Mol object at 0x7fdd147ffd80>, <rdkit.Chem.rdchem.Mol object at 0x7fdd147fdbd0>, <rdkit.Chem.rdchem.Mol object at 0x7fdd147fef80>, <rdkit.Chem.rdchem.Mol object at 0x7fdd147ff920>, <rdkit.Chem.rdchem.Mol object at 0x7fdd146109e0>]","[<rdkit.Chem.rdchem.Mol object at 0x7fdd147fd5b0>, <rdkit.Chem.rdchem.Mol object at 0x7fdd147ffc30>, <rdkit.Chem.rdchem.Mol object at 0x7fdd147fd690>, <rdkit.Chem.rdchem.Mol object at 0x7fdd14610c80>, <rdkit.Chem.rdchem.Mol object at 0x7fdd14610970>]","[<rdkit.Chem.rdchem.Mol object at 0x7fdd147ffd80>, <rdkit.Chem.rdchem.Mol object at 0x7fdd147fdbd0>, <rdkit.Chem.rdchem.Mol object at 0x7fdd147fef80>, <rdkit.Chem.rdchem.Mol object at 0x7fdd147ff920>, <rdkit.Chem.rdchem.Mol object at 0x7fdd146109e0>, '.', <rdkit.Chem.rdchem.Mol object at 0x7fdd147fd5b0>, <rdkit.Chem.rdchem.Mol object at 0x7fdd147ffc30>, <rdkit.Chem.rdchem.Mol object at 0x7fdd147fd690>, <rdkit.Chem.rdchem.Mol object at 0x7fdd14610c80>, <rdkit.Chem.rdchem.Mol object at 0x7fdd14610970>]","[0, 0, 0, 0, 0, 0, 6258, 6259, 6260, 6261, 6262, 1, 6263, 6264, 6265, 6266, 6267]"