Donor,Acceptor,HOMO_D_eV,LUMO_D_eV,HOMO_A_eV,LUMO_A_eV,D_A_ratio_m_m,solvent,solvent_additive,annealing_temperature,hole_contact_layer,electron_contact_layer,PCE_percent,calc_PCE_percent,Voc_V,FF_percent,Donor_BRICS,Acceptor_BRICS,DA_pair_BRICS,DA_tokenized_BRICS
PTB7-Th,IDT-2BM,-5.204782608695651,-3.5391891891891896,-5.586666666666666,-4.083333333333333,0.667,CB,DPE,25.0,MoOx,ZnO,3.97,3.99,0.826,52.0,"[<rdkit.Chem.rdchem.Mol object at 0x7fdd148b7140>, <rdkit.Chem.rdchem.Mol object at 0x7fdd148b6c00>, <rdkit.Chem.rdchem.Mol object at 0x7fdd148b6ea0>, <rdkit.Chem.rdchem.Mol object at 0x7fdd148b7300>, <rdkit.Chem.rdchem.Mol object at 0x7fdd148b7d80>, <rdkit.Chem.rdchem.Mol object at 0x7fdd148b6b90>, <rdkit.Chem.rdchem.Mol object at 0x7fdd148b46d0>]","[<rdkit.Chem.rdchem.Mol object at 0x7fdd148b78b0>, <rdkit.Chem.rdchem.Mol object at 0x7fdd148b7060>, <rdkit.Chem.rdchem.Mol object at 0x7fdd148b6ab0>, <rdkit.Chem.rdchem.Mol object at 0x7fdd148b7290>, <rdkit.Chem.rdchem.Mol object at 0x7fdd148b66c0>]","[<rdkit.Chem.rdchem.Mol object at 0x7fdd148b7140>, <rdkit.Chem.rdchem.Mol object at 0x7fdd148b6c00>, <rdkit.Chem.rdchem.Mol object at 0x7fdd148b6ea0>, <rdkit.Chem.rdchem.Mol object at 0x7fdd148b7300>, <rdkit.Chem.rdchem.Mol object at 0x7fdd148b7d80>, <rdkit.Chem.rdchem.Mol object at 0x7fdd148b6b90>, <rdkit.Chem.rdchem.Mol object at 0x7fdd148b46d0>, '.', <rdkit.Chem.rdchem.Mol object at 0x7fdd148b78b0>, <rdkit.Chem.rdchem.Mol object at 0x7fdd148b7060>, <rdkit.Chem.rdchem.Mol object at 0x7fdd148b6ab0>, <rdkit.Chem.rdchem.Mol object at 0x7fdd148b7290>, <rdkit.Chem.rdchem.Mol object at 0x7fdd148b66c0>]","[0, 0, 0, 0, 2298, 2299, 2300, 2301, 2302, 2303, 2304, 1, 2305, 2306, 2307, 2308, 2309]"
PBDB-T,FDNCTF,-5.297714285714285,-3.4170000000000003,-5.42,-3.73,1.25,CB,_,25.0,PEDOT:PSS,PDINO,10.0,9.8,0.94,66.0,"[<rdkit.Chem.rdchem.Mol object at 0x7fdd148b5a80>, <rdkit.Chem.rdchem.Mol object at 0x7fdd148b5070>, <rdkit.Chem.rdchem.Mol object at 0x7fdd148b5c40>, <rdkit.Chem.rdchem.Mol object at 0x7fdd148b5a10>, <rdkit.Chem.rdchem.Mol object at 0x7fdd148b6500>]","[<rdkit.Chem.rdchem.Mol object at 0x7fdd148b7a00>, <rdkit.Chem.rdchem.Mol object at 0x7fdd148b5230>, <rdkit.Chem.rdchem.Mol object at 0x7fdd148b4ac0>, <rdkit.Chem.rdchem.Mol object at 0x7fdd148b6180>]","[<rdkit.Chem.rdchem.Mol object at 0x7fdd148b5a80>, <rdkit.Chem.rdchem.Mol object at 0x7fdd148b5070>, <rdkit.Chem.rdchem.Mol object at 0x7fdd148b5c40>, <rdkit.Chem.rdchem.Mol object at 0x7fdd148b5a10>, <rdkit.Chem.rdchem.Mol object at 0x7fdd148b6500>, '.', <rdkit.Chem.rdchem.Mol object at 0x7fdd148b7a00>, <rdkit.Chem.rdchem.Mol object at 0x7fdd148b5230>, <rdkit.Chem.rdchem.Mol object at 0x7fdd148b4ac0>, <rdkit.Chem.rdchem.Mol object at 0x7fdd148b6180>]","[0, 0, 0, 0, 0, 0, 0, 2321, 2322, 2323, 2324, 2325, 1, 2326, 2327, 2328, 2329]"
PBDB-T,FDICTF,-5.297714285714285,-3.4170000000000003,-5.43,-3.71,1.25,CB,_,25.0,PEDOT:PSS,PDINO,11.2,10.99,0.93,72.5,"[<rdkit.Chem.rdchem.Mol object at 0x7fdd148b4970>, <rdkit.Chem.rdchem.Mol object at 0x7fdd148b7ed0>, <rdkit.Chem.rdchem.Mol object at 0x7fdd148b4200>, <rdkit.Chem.rdchem.Mol object at 0x7fdd148b40b0>, <rdkit.Chem.rdchem.Mol object at 0x7fdd148b6110>]","[<rdkit.Chem.rdchem.Mol object at 0x7fdd148b6420>, <rdkit.Chem.rdchem.Mol object at 0x7fdd148b4660>, <rdkit.Chem.rdchem.Mol object at 0x7fdd148b4120>, <rdkit.Chem.rdchem.Mol object at 0x7fdd148b63b0>]","[<rdkit.Chem.rdchem.Mol object at 0x7fdd148b4970>, <rdkit.Chem.rdchem.Mol object at 0x7fdd148b7ed0>, <rdkit.Chem.rdchem.Mol object at 0x7fdd148b4200>, <rdkit.Chem.rdchem.Mol object at 0x7fdd148b40b0>, <rdkit.Chem.rdchem.Mol object at 0x7fdd148b6110>, '.', <rdkit.Chem.rdchem.Mol object at 0x7fdd148b6420>, <rdkit.Chem.rdchem.Mol object at 0x7fdd148b4660>, <rdkit.Chem.rdchem.Mol object at 0x7fdd148b4120>, <rdkit.Chem.rdchem.Mol object at 0x7fdd148b63b0>]","[0, 0, 0, 0, 0, 0, 0, 2330, 2331, 2332, 2333, 2334, 1, 2335, 2336, 2337, 2338]"
PTB7-Th,DTNR,-5.204782608695651,-3.5391891891891896,-5.22,-3.5,0.667,CB,CN,25.0,MoOx,ZnO,9.51,9.51,1.08,56.0,"[<rdkit.Chem.rdchem.Mol object at 0x7fdd148b4c80>, <rdkit.Chem.rdchem.Mol object at 0x7fdd148b7ae0>, <rdkit.Chem.rdchem.Mol object at 0x7fdd148b4f20>, <rdkit.Chem.rdchem.Mol object at 0x7fdd148b6b20>, <rdkit.Chem.rdchem.Mol object at 0x7fdd148b6340>, <rdkit.Chem.rdchem.Mol object at 0x7fdd148b6810>, <rdkit.Chem.rdchem.Mol object at 0x7fdd148b43c0>]","[<rdkit.Chem.rdchem.Mol object at 0x7fdd148b4270>, <rdkit.Chem.rdchem.Mol object at 0x7fdd148b68f0>, <rdkit.Chem.rdchem.Mol object at 0x7fdd148b4890>, <rdkit.Chem.rdchem.Mol object at 0x7fdd148b5620>, <rdkit.Chem.rdchem.Mol object at 0x7fdd148b4b30>]","[<rdkit.Chem.rdchem.Mol object at 0x7fdd148b4c80>, <rdkit.Chem.rdchem.Mol object at 0x7fdd148b7ae0>, <rdkit.Chem.rdchem.Mol object at 0x7fdd148b4f20>, <rdkit.Chem.rdchem.Mol object at 0x7fdd148b6b20>, <rdkit.Chem.rdchem.Mol object at 0x7fdd148b6340>, <rdkit.Chem.rdchem.Mol object at 0x7fdd148b6810>, <rdkit.Chem.rdchem.Mol object at 0x7fdd148b43c0>, '.', <rdkit.Chem.rdchem.Mol object at 0x7fdd148b4270>, <rdkit.Chem.rdchem.Mol object at 0x7fdd148b68f0>, <rdkit.Chem.rdchem.Mol object at 0x7fdd148b4890>, <rdkit.Chem.rdchem.Mol object at 0x7fdd148b5620>, <rdkit.Chem.rdchem.Mol object at 0x7fdd148b4b30>]","[0, 0, 0, 0, 2339, 2340, 2341, 2342, 2343, 2344, 2345, 1, 2346, 2347, 2348, 2349, 2350]"
PBDB-T,DTNIC6,-5.297714285714285,-3.4170000000000003,-5.87,-3.92,1.0,CB,_,25.0,MoOx,TiO2:TOPD,3.39,3.38,0.96,45.63,"[<rdkit.Chem.rdchem.Mol object at 0x7fdd148b53f0>, <rdkit.Chem.rdchem.Mol object at 0x7fdd148b49e0>, <rdkit.Chem.rdchem.Mol object at 0x7fdd148b4eb0>, <rdkit.Chem.rdchem.Mol object at 0x7fdd148b7990>, <rdkit.Chem.rdchem.Mol object at 0x7fdd148b7bc0>]","[<rdkit.Chem.rdchem.Mol object at 0x7fdd148b7680>, <rdkit.Chem.rdchem.Mol object at 0x7fdd148b6030>, <rdkit.Chem.rdchem.Mol object at 0x7fdd148b4f90>, <rdkit.Chem.rdchem.Mol object at 0x7fdd148b4580>]","[<rdkit.Chem.rdchem.Mol object at 0x7fdd148b53f0>, <rdkit.Chem.rdchem.Mol object at 0x7fdd148b49e0>, <rdkit.Chem.rdchem.Mol object at 0x7fdd148b4eb0>, <rdkit.Chem.rdchem.Mol object at 0x7fdd148b7990>, <rdkit.Chem.rdchem.Mol object at 0x7fdd148b7bc0>, '.', <rdkit.Chem.rdchem.Mol object at 0x7fdd148b7680>, <rdkit.Chem.rdchem.Mol object at 0x7fdd148b6030>, <rdkit.Chem.rdchem.Mol object at 0x7fdd148b4f90>, <rdkit.Chem.rdchem.Mol object at 0x7fdd148b4580>]","[0, 0, 0, 0, 0, 0, 0, 2351, 2352, 2353, 2354, 2355, 1, 2356, 2357, 2358, 2359]"
PBDB-T,DTNIC8,-5.297714285714285,-3.4170000000000003,-5.91,-3.93,1.0,CB,_,25.0,MoOx,TiO2:TOPD,9.03,9.03,0.96,72.84,"[<rdkit.Chem.rdchem.Mol object at 0x7fdd148b7f40>, <rdkit.Chem.rdchem.Mol object at 0x7fdd148b57e0>, <rdkit.Chem.rdchem.Mol object at 0x7fdd148b6490>, <rdkit.Chem.rdchem.Mol object at 0x7fdd148b7b50>, <rdkit.Chem.rdchem.Mol object at 0x7fdd148c5230>]","[<rdkit.Chem.rdchem.Mol object at 0x7fdd148b6730>, <rdkit.Chem.rdchem.Mol object at 0x7fdd148b6650>, <rdkit.Chem.rdchem.Mol object at 0x7fdd148b42e0>, <rdkit.Chem.rdchem.Mol object at 0x7fdd148b4ba0>]","[<rdkit.Chem.rdchem.Mol object at 0x7fdd148b7f40>, <rdkit.Chem.rdchem.Mol object at 0x7fdd148b57e0>, <rdkit.Chem.rdchem.Mol object at 0x7fdd148b6490>, <rdkit.Chem.rdchem.Mol object at 0x7fdd148b7b50>, <rdkit.Chem.rdchem.Mol object at 0x7fdd148c5230>, '.', <rdkit.Chem.rdchem.Mol object at 0x7fdd148b6730>, <rdkit.Chem.rdchem.Mol object at 0x7fdd148b6650>, <rdkit.Chem.rdchem.Mol object at 0x7fdd148b42e0>, <rdkit.Chem.rdchem.Mol object at 0x7fdd148b4ba0>]","[0, 0, 0, 0, 0, 0, 0, 2360, 2361, 2362, 2363, 2364, 1, 2365, 2366, 2367, 2368]"
PTB7-Th,DTCC-IC,-5.204782608695651,-3.5391891891891896,-5.5,-3.87,1.0,CF,CN,100.0,PEDOT:PSS,Ca,6.0,6.0,0.95,56.2,"[<rdkit.Chem.rdchem.Mol object at 0x7fdd148b4190>, <rdkit.Chem.rdchem.Mol object at 0x7fdd148b4a50>, <rdkit.Chem.rdchem.Mol object at 0x7fdd148b58c0>, <rdkit.Chem.rdchem.Mol object at 0x7fdd148b5f50>, <rdkit.Chem.rdchem.Mol object at 0x7fdd148b4040>, <rdkit.Chem.rdchem.Mol object at 0x7fdd148b4350>, <rdkit.Chem.rdchem.Mol object at 0x7fdd148b4c10>]","[<rdkit.Chem.rdchem.Mol object at 0x7fdd148b62d0>, <rdkit.Chem.rdchem.Mol object at 0x7fdd148b5e00>, <rdkit.Chem.rdchem.Mol object at 0x7fdd148c5150>, <rdkit.Chem.rdchem.Mol object at 0x7fdd148b4cf0>, <rdkit.Chem.rdchem.Mol object at 0x7fdd148b4d60>, <rdkit.Chem.rdchem.Mol object at 0x7fdd148c5000>, <rdkit.Chem.rdchem.Mol object at 0x7fdd148c4b30>]","[<rdkit.Chem.rdchem.Mol object at 0x7fdd148b4190>, <rdkit.Chem.rdchem.Mol object at 0x7fdd148b4a50>, <rdkit.Chem.rdchem.Mol object at 0x7fdd148b58c0>, <rdkit.Chem.rdchem.Mol object at 0x7fdd148b5f50>, <rdkit.Chem.rdchem.Mol object at 0x7fdd148b4040>, <rdkit.Chem.rdchem.Mol object at 0x7fdd148b4350>, <rdkit.Chem.rdchem.Mol object at 0x7fdd148b4c10>, '.', <rdkit.Chem.rdchem.Mol object at 0x7fdd148b62d0>, <rdkit.Chem.rdchem.Mol object at 0x7fdd148b5e00>, <rdkit.Chem.rdchem.Mol object at 0x7fdd148c5150>, <rdkit.Chem.rdchem.Mol object at 0x7fdd148b4cf0>, <rdkit.Chem.rdchem.Mol object at 0x7fdd148b4d60>, <rdkit.Chem.rdchem.Mol object at 0x7fdd148c5000>, <rdkit.Chem.rdchem.Mol object at 0x7fdd148c4b30>]","[0, 0, 2369, 2370, 2371, 2372, 2373, 2374, 2375, 1, 2376, 2377, 2378, 2379, 2380, 2381, 2382]"
P3HT,DNIT-TT2T,-5.057777777777777,-2.989444444444445,-5.94,-3.75,1.0,o-DCB,_,130.0,PEDOT:PSS,Ca,1.25,1.25,0.88,43.47,"[<rdkit.Chem.rdchem.Mol object at 0x7fdd148ab220>, <rdkit.Chem.rdchem.Mol object at 0x7fdd148ab8b0>, <rdkit.Chem.rdchem.Mol object at 0x7fdd148c4eb0>, <rdkit.Chem.rdchem.Mol object at 0x7fdd148c54d0>]","[<rdkit.Chem.rdchem.Mol object at 0x7fdd148b4e40>, <rdkit.Chem.rdchem.Mol object at 0x7fdd148b5fc0>, <rdkit.Chem.rdchem.Mol object at 0x7fdd148a9000>, <rdkit.Chem.rdchem.Mol object at 0x7fdd148b65e0>, <rdkit.Chem.rdchem.Mol object at 0x7fdd148c4900>]","[<rdkit.Chem.rdchem.Mol object at 0x7fdd148ab220>, <rdkit.Chem.rdchem.Mol object at 0x7fdd148ab8b0>, <rdkit.Chem.rdchem.Mol object at 0x7fdd148c4eb0>, <rdkit.Chem.rdchem.Mol object at 0x7fdd148c54d0>, '.', <rdkit.Chem.rdchem.Mol object at 0x7fdd148b4e40>, <rdkit.Chem.rdchem.Mol object at 0x7fdd148b5fc0>, <rdkit.Chem.rdchem.Mol object at 0x7fdd148a9000>, <rdkit.Chem.rdchem.Mol object at 0x7fdd148b65e0>, <rdkit.Chem.rdchem.Mol object at 0x7fdd148c4900>]","[0, 0, 0, 0, 0, 0, 0, 2383, 2384, 2385, 2386, 1, 2387, 2388, 2389, 2390, 2391]"
PTB7-Th,DICTF,-5.204782608695651,-3.5391891891891896,-5.67,-3.79,0.714,CF,_,100.0,PEDOT:PSS,PDIN,7.63,7.63,0.85,55.0,"[<rdkit.Chem.rdchem.Mol object at 0x7fdd148b5310>, <rdkit.Chem.rdchem.Mol object at 0x7fdd148b4900>, <rdkit.Chem.rdchem.Mol object at 0x7fdd148b5e70>, <rdkit.Chem.rdchem.Mol object at 0x7fdd148b7ca0>, <rdkit.Chem.rdchem.Mol object at 0x7fdd148b5bd0>, <rdkit.Chem.rdchem.Mol object at 0x7fdd148b6ce0>, <rdkit.Chem.rdchem.Mol object at 0x7fdd148c4820>]","[<rdkit.Chem.rdchem.Mol object at 0x7fdd148b7370>, <rdkit.Chem.rdchem.Mol object at 0x7fdd148c4ba0>, <rdkit.Chem.rdchem.Mol object at 0x7fdd148b5000>, <rdkit.Chem.rdchem.Mol object at 0x7fdd148b45f0>, <rdkit.Chem.rdchem.Mol object at 0x7fdd148c4970>]","[<rdkit.Chem.rdchem.Mol object at 0x7fdd148b5310>, <rdkit.Chem.rdchem.Mol object at 0x7fdd148b4900>, <rdkit.Chem.rdchem.Mol object at 0x7fdd148b5e70>, <rdkit.Chem.rdchem.Mol object at 0x7fdd148b7ca0>, <rdkit.Chem.rdchem.Mol object at 0x7fdd148b5bd0>, <rdkit.Chem.rdchem.Mol object at 0x7fdd148b6ce0>, <rdkit.Chem.rdchem.Mol object at 0x7fdd148c4820>, '.', <rdkit.Chem.rdchem.Mol object at 0x7fdd148b7370>, <rdkit.Chem.rdchem.Mol object at 0x7fdd148c4ba0>, <rdkit.Chem.rdchem.Mol object at 0x7fdd148b5000>, <rdkit.Chem.rdchem.Mol object at 0x7fdd148b45f0>, <rdkit.Chem.rdchem.Mol object at 0x7fdd148c4970>]","[0, 0, 0, 0, 2392, 2393, 2394, 2395, 2396, 2397, 2398, 1, 2399, 2400, 2401, 2402, 2403]"
P1_BDT-TBT,PY1,-5.1,-3.48,-5.27,-4.0,0.5,CF,DIO,25.0,PEDOT:PSS,PFN-Br,4.89,4.89,0.83,56.0,"[<rdkit.Chem.rdchem.Mol object at 0x7fdd148c4740>, <rdkit.Chem.rdchem.Mol object at 0x7fdd148ab370>, <rdkit.Chem.rdchem.Mol object at 0x7fdd148b5ee0>, <rdkit.Chem.rdchem.Mol object at 0x7fdd148c55b0>, <rdkit.Chem.rdchem.Mol object at 0x7fdd148c4a50>, <rdkit.Chem.rdchem.Mol object at 0x7fdd148c4f20>]","[<rdkit.Chem.rdchem.Mol object at 0x7fdd148b47b0>, <rdkit.Chem.rdchem.Mol object at 0x7fdd148c4cf0>, <rdkit.Chem.rdchem.Mol object at 0x7fdd148c4c80>, <rdkit.Chem.rdchem.Mol object at 0x7fdd148c4580>, <rdkit.Chem.rdchem.Mol object at 0x7fdd148c5070>, <rdkit.Chem.rdchem.Mol object at 0x7fdd148c6730>, <rdkit.Chem.rdchem.Mol object at 0x7fdd148c69d0>]","[<rdkit.Chem.rdchem.Mol object at 0x7fdd148c4740>, <rdkit.Chem.rdchem.Mol object at 0x7fdd148ab370>, <rdkit.Chem.rdchem.Mol object at 0x7fdd148b5ee0>, <rdkit.Chem.rdchem.Mol object at 0x7fdd148c55b0>, <rdkit.Chem.rdchem.Mol object at 0x7fdd148c4a50>, <rdkit.Chem.rdchem.Mol object at 0x7fdd148c4f20>, '.', <rdkit.Chem.rdchem.Mol object at 0x7fdd148b47b0>, <rdkit.Chem.rdchem.Mol object at 0x7fdd148c4cf0>, <rdkit.Chem.rdchem.Mol object at 0x7fdd148c4c80>, <rdkit.Chem.rdchem.Mol object at 0x7fdd148c4580>, <rdkit.Chem.rdchem.Mol object at 0x7fdd148c5070>, <rdkit.Chem.rdchem.Mol object at 0x7fdd148c6730>, <rdkit.Chem.rdchem.Mol object at 0x7fdd148c69d0>]","[0, 0, 0, 2404, 2405, 2406, 2407, 2408, 2409, 1, 2410, 2411, 2412, 2413, 2414, 2415, 2416]"
P1_BDT-TBT,DCI-2,-5.1,-3.48,-5.24,-4.05,0.5,CF,DIO,25.0,PEDOT:PSS,PFN-Br,6.94,6.94,0.8,63.0,"[<rdkit.Chem.rdchem.Mol object at 0x7fdd148c6c70>, <rdkit.Chem.rdchem.Mol object at 0x7fdd148c6ea0>, <rdkit.Chem.rdchem.Mol object at 0x7fdd148b6260>, <rdkit.Chem.rdchem.Mol object at 0x7fdd148c60a0>, <rdkit.Chem.rdchem.Mol object at 0x7fdd148c6b20>, <rdkit.Chem.rdchem.Mol object at 0x7fdd148c6500>]","[<rdkit.Chem.rdchem.Mol object at 0x7fdd148c6960>, <rdkit.Chem.rdchem.Mol object at 0x7fdd148c5f50>, <rdkit.Chem.rdchem.Mol object at 0x7fdd148c6570>, <rdkit.Chem.rdchem.Mol object at 0x7fdd148c66c0>, <rdkit.Chem.rdchem.Mol object at 0x7fdd148c6340>, <rdkit.Chem.rdchem.Mol object at 0x7fdd148c6dc0>, <rdkit.Chem.rdchem.Mol object at 0x7fdd148c70d0>]","[<rdkit.Chem.rdchem.Mol object at 0x7fdd148c6c70>, <rdkit.Chem.rdchem.Mol object at 0x7fdd148c6ea0>, <rdkit.Chem.rdchem.Mol object at 0x7fdd148b6260>, <rdkit.Chem.rdchem.Mol object at 0x7fdd148c60a0>, <rdkit.Chem.rdchem.Mol object at 0x7fdd148c6b20>, <rdkit.Chem.rdchem.Mol object at 0x7fdd148c6500>, '.', <rdkit.Chem.rdchem.Mol object at 0x7fdd148c6960>, <rdkit.Chem.rdchem.Mol object at 0x7fdd148c5f50>, <rdkit.Chem.rdchem.Mol object at 0x7fdd148c6570>, <rdkit.Chem.rdchem.Mol object at 0x7fdd148c66c0>, <rdkit.Chem.rdchem.Mol object at 0x7fdd148c6340>, <rdkit.Chem.rdchem.Mol object at 0x7fdd148c6dc0>, <rdkit.Chem.rdchem.Mol object at 0x7fdd148c70d0>]","[0, 0, 0, 2417, 2418, 2419, 2420, 2421, 2422, 1, 2423, 2424, 2425, 2426, 2427, 2428, 2429]"
PBDTTT-C-T,DC-IDT2F,-5.128,-3.268,-5.44,-3.88,2.0,o-DCB,_,25.0,MoOx,PEIE,3.08,3.08,0.96,50.8,"[<rdkit.Chem.rdchem.Mol object at 0x7fdd148b5b60>, <rdkit.Chem.rdchem.Mol object at 0x7fdd148c7450>, <rdkit.Chem.rdchem.Mol object at 0x7fdd148c71b0>, <rdkit.Chem.rdchem.Mol object at 0x7fdd148c7220>, <rdkit.Chem.rdchem.Mol object at 0x7fdd148c52a0>]","[<rdkit.Chem.rdchem.Mol object at 0x7fdd148c5380>, <rdkit.Chem.rdchem.Mol object at 0x7fdd148c7760>, <rdkit.Chem.rdchem.Mol object at 0x7fdd148c7610>, <rdkit.Chem.rdchem.Mol object at 0x7fdd148c6b90>, <rdkit.Chem.rdchem.Mol object at 0x7fdd148c4c10>, <rdkit.Chem.rdchem.Mol object at 0x7fdd148c5700>]","[<rdkit.Chem.rdchem.Mol object at 0x7fdd148b5b60>, <rdkit.Chem.rdchem.Mol object at 0x7fdd148c7450>, <rdkit.Chem.rdchem.Mol object at 0x7fdd148c71b0>, <rdkit.Chem.rdchem.Mol object at 0x7fdd148c7220>, <rdkit.Chem.rdchem.Mol object at 0x7fdd148c52a0>, '.', <rdkit.Chem.rdchem.Mol object at 0x7fdd148c5380>, <rdkit.Chem.rdchem.Mol object at 0x7fdd148c7760>, <rdkit.Chem.rdchem.Mol object at 0x7fdd148c7610>, <rdkit.Chem.rdchem.Mol object at 0x7fdd148c6b90>, <rdkit.Chem.rdchem.Mol object at 0x7fdd148c4c10>, <rdkit.Chem.rdchem.Mol object at 0x7fdd148c5700>]","[0, 0, 0, 0, 0, 2430, 2431, 2432, 2433, 2434, 1, 2435, 2436, 2437, 2438, 2439, 2440]"
PTB7-Th,IM-IDT,-5.204782608695651,-3.5391891891891896,-5.44,-4.0,1.0,o-DCB,DPE,100.0,PEDOT:PSS,Ca,1.6,1.41,0.58,49.16,"[<rdkit.Chem.rdchem.Mol object at 0x7fdd148c45f0>, <rdkit.Chem.rdchem.Mol object at 0x7fdd148c4dd0>, <rdkit.Chem.rdchem.Mol object at 0x7fdd148c4350>, <rdkit.Chem.rdchem.Mol object at 0x7fdd148c5540>, <rdkit.Chem.rdchem.Mol object at 0x7fdd148c47b0>, <rdkit.Chem.rdchem.Mol object at 0x7fdd148c6a40>, <rdkit.Chem.rdchem.Mol object at 0x7fdd148c5310>]","[<rdkit.Chem.rdchem.Mol object at 0x7fdd148c5770>, <rdkit.Chem.rdchem.Mol object at 0x7fdd148c7530>, <rdkit.Chem.rdchem.Mol object at 0x7fdd148c75a0>, <rdkit.Chem.rdchem.Mol object at 0x7fdd148c6810>]","[<rdkit.Chem.rdchem.Mol object at 0x7fdd148c45f0>, <rdkit.Chem.rdchem.Mol object at 0x7fdd148c4dd0>, <rdkit.Chem.rdchem.Mol object at 0x7fdd148c4350>, <rdkit.Chem.rdchem.Mol object at 0x7fdd148c5540>, <rdkit.Chem.rdchem.Mol object at 0x7fdd148c47b0>, <rdkit.Chem.rdchem.Mol object at 0x7fdd148c6a40>, <rdkit.Chem.rdchem.Mol object at 0x7fdd148c5310>, '.', <rdkit.Chem.rdchem.Mol object at 0x7fdd148c5770>, <rdkit.Chem.rdchem.Mol object at 0x7fdd148c7530>, <rdkit.Chem.rdchem.Mol object at 0x7fdd148c75a0>, <rdkit.Chem.rdchem.Mol object at 0x7fdd148c6810>]","[0, 0, 0, 0, 0, 2441, 2442, 2443, 2444, 2445, 2446, 2447, 1, 2448, 2449, 2450, 2451]"
PTB7-Th,TIM-IDT,-5.204782608695651,-3.5391891891891896,-5.36,-4.01,1.0,o-DCB,_,25.0,PEDOT:PSS,Ca,1.63,1.44,0.6,45.53,"[<rdkit.Chem.rdchem.Mol object at 0x7fdd148c6c00>, <rdkit.Chem.rdchem.Mol object at 0x7fdd148c4e40>, <rdkit.Chem.rdchem.Mol object at 0x7fdd148c4430>, <rdkit.Chem.rdchem.Mol object at 0x7fdd148c6ff0>, <rdkit.Chem.rdchem.Mol object at 0x7fdd148c40b0>, <rdkit.Chem.rdchem.Mol object at 0x7fdd148c4d60>, <rdkit.Chem.rdchem.Mol object at 0x7fdd148c4190>]","[<rdkit.Chem.rdchem.Mol object at 0x7fdd148c49e0>, <rdkit.Chem.rdchem.Mol object at 0x7fdd148c42e0>, <rdkit.Chem.rdchem.Mol object at 0x7fdd148c4120>, <rdkit.Chem.rdchem.Mol object at 0x7fdd148c50e0>]","[<rdkit.Chem.rdchem.Mol object at 0x7fdd148c6c00>, <rdkit.Chem.rdchem.Mol object at 0x7fdd148c4e40>, <rdkit.Chem.rdchem.Mol object at 0x7fdd148c4430>, <rdkit.Chem.rdchem.Mol object at 0x7fdd148c6ff0>, <rdkit.Chem.rdchem.Mol object at 0x7fdd148c40b0>, <rdkit.Chem.rdchem.Mol object at 0x7fdd148c4d60>, <rdkit.Chem.rdchem.Mol object at 0x7fdd148c4190>, '.', <rdkit.Chem.rdchem.Mol object at 0x7fdd148c49e0>, <rdkit.Chem.rdchem.Mol object at 0x7fdd148c42e0>, <rdkit.Chem.rdchem.Mol object at 0x7fdd148c4120>, <rdkit.Chem.rdchem.Mol object at 0x7fdd148c50e0>]","[0, 0, 0, 0, 0, 2452, 2453, 2454, 2455, 2456, 2457, 2458, 1, 2459, 2460, 2461, 2462]"