Donor,Acceptor,HOMO_D_eV,LUMO_D_eV,HOMO_A_eV,LUMO_A_eV,D_A_ratio_m_m,solvent,solvent_additive,annealing_temperature,hole_contact_layer,electron_contact_layer,PCE_percent,calc_PCE_percent,Voc_V,FF_percent,Donor_BRICS,Acceptor_BRICS,DA_pair_BRICS,DA_tokenized_BRICS
J71,ITCPTC,-5.353333333333333,-3.4318181818181825,-5.604000000000001,-3.858000000000001,1.0,CF,_,150.0,PEDOT:PSS,PDINO,11.63,11.63,0.896,74.1,"[<rdkit.Chem.rdchem.Mol object at 0x7fdd149a2490>, <rdkit.Chem.rdchem.Mol object at 0x7fdd149a1bd0>, <rdkit.Chem.rdchem.Mol object at 0x7fdd149a1540>, <rdkit.Chem.rdchem.Mol object at 0x7fdd149a1b60>, <rdkit.Chem.rdchem.Mol object at 0x7fdd149a1000>, <rdkit.Chem.rdchem.Mol object at 0x7fdd149a1c40>]","[<rdkit.Chem.rdchem.Mol object at 0x7fdd149a0e40>, <rdkit.Chem.rdchem.Mol object at 0x7fdd149a1700>, <rdkit.Chem.rdchem.Mol object at 0x7fdd149a1d90>, <rdkit.Chem.rdchem.Mol object at 0x7fdd149a12a0>, <rdkit.Chem.rdchem.Mol object at 0x7fdd149a0740>]","[<rdkit.Chem.rdchem.Mol object at 0x7fdd149a2490>, <rdkit.Chem.rdchem.Mol object at 0x7fdd149a1bd0>, <rdkit.Chem.rdchem.Mol object at 0x7fdd149a1540>, <rdkit.Chem.rdchem.Mol object at 0x7fdd149a1b60>, <rdkit.Chem.rdchem.Mol object at 0x7fdd149a1000>, <rdkit.Chem.rdchem.Mol object at 0x7fdd149a1c40>, '.', <rdkit.Chem.rdchem.Mol object at 0x7fdd149a0e40>, <rdkit.Chem.rdchem.Mol object at 0x7fdd149a1700>, <rdkit.Chem.rdchem.Mol object at 0x7fdd149a1d90>, <rdkit.Chem.rdchem.Mol object at 0x7fdd149a12a0>, <rdkit.Chem.rdchem.Mol object at 0x7fdd149a0740>]","[0, 0, 0, 0, 0, 330, 331, 332, 333, 334, 335, 1, 336, 337, 338, 339, 340]"
J71,MeIC,-5.353333333333333,-3.4318181818181825,-5.57,-3.93,1.0,CF,_,150.0,PEDOT:PSS,PDINO,12.54,12.54,0.918,74.2,"[<rdkit.Chem.rdchem.Mol object at 0x7fdd149a25e0>, <rdkit.Chem.rdchem.Mol object at 0x7fdd149a1770>, <rdkit.Chem.rdchem.Mol object at 0x7fdd149a1f50>, <rdkit.Chem.rdchem.Mol object at 0x7fdd149a2180>, <rdkit.Chem.rdchem.Mol object at 0x7fdd149a22d0>, <rdkit.Chem.rdchem.Mol object at 0x7fdd149a2810>]","[<rdkit.Chem.rdchem.Mol object at 0x7fdd149a2110>, <rdkit.Chem.rdchem.Mol object at 0x7fdd149a1af0>, <rdkit.Chem.rdchem.Mol object at 0x7fdd149a0120>, <rdkit.Chem.rdchem.Mol object at 0x7fdd149a2340>, <rdkit.Chem.rdchem.Mol object at 0x7fdd149a1e70>]","[<rdkit.Chem.rdchem.Mol object at 0x7fdd149a25e0>, <rdkit.Chem.rdchem.Mol object at 0x7fdd149a1770>, <rdkit.Chem.rdchem.Mol object at 0x7fdd149a1f50>, <rdkit.Chem.rdchem.Mol object at 0x7fdd149a2180>, <rdkit.Chem.rdchem.Mol object at 0x7fdd149a22d0>, <rdkit.Chem.rdchem.Mol object at 0x7fdd149a2810>, '.', <rdkit.Chem.rdchem.Mol object at 0x7fdd149a2110>, <rdkit.Chem.rdchem.Mol object at 0x7fdd149a1af0>, <rdkit.Chem.rdchem.Mol object at 0x7fdd149a0120>, <rdkit.Chem.rdchem.Mol object at 0x7fdd149a2340>, <rdkit.Chem.rdchem.Mol object at 0x7fdd149a1e70>]","[0, 0, 0, 0, 0, 341, 342, 343, 344, 345, 346, 1, 347, 348, 349, 350, 351]"
J40,ITIC,-5.4,-2.9,-5.574146341463415,-3.915,1.0,CF,_,120.0,PEDOT:PSS,PDINO,6.48,6.52,0.89,60.13,"[<rdkit.Chem.rdchem.Mol object at 0x7fdd149a2b20>, <rdkit.Chem.rdchem.Mol object at 0x7fdd149a18c0>, <rdkit.Chem.rdchem.Mol object at 0x7fdd149a0200>, <rdkit.Chem.rdchem.Mol object at 0x7fdd149a1620>, <rdkit.Chem.rdchem.Mol object at 0x7fdd149a2570>, <rdkit.Chem.rdchem.Mol object at 0x7fdd149a27a0>, <rdkit.Chem.rdchem.Mol object at 0x7fdd149a0890>]","[<rdkit.Chem.rdchem.Mol object at 0x7fdd149a21f0>, <rdkit.Chem.rdchem.Mol object at 0x7fdd149a2960>, <rdkit.Chem.rdchem.Mol object at 0x7fdd149a28f0>, <rdkit.Chem.rdchem.Mol object at 0x7fdd149a2650>, <rdkit.Chem.rdchem.Mol object at 0x7fdd149a2c70>]","[<rdkit.Chem.rdchem.Mol object at 0x7fdd149a2b20>, <rdkit.Chem.rdchem.Mol object at 0x7fdd149a18c0>, <rdkit.Chem.rdchem.Mol object at 0x7fdd149a0200>, <rdkit.Chem.rdchem.Mol object at 0x7fdd149a1620>, <rdkit.Chem.rdchem.Mol object at 0x7fdd149a2570>, <rdkit.Chem.rdchem.Mol object at 0x7fdd149a27a0>, <rdkit.Chem.rdchem.Mol object at 0x7fdd149a0890>, '.', <rdkit.Chem.rdchem.Mol object at 0x7fdd149a21f0>, <rdkit.Chem.rdchem.Mol object at 0x7fdd149a2960>, <rdkit.Chem.rdchem.Mol object at 0x7fdd149a28f0>, <rdkit.Chem.rdchem.Mol object at 0x7fdd149a2650>, <rdkit.Chem.rdchem.Mol object at 0x7fdd149a2c70>]","[0, 0, 0, 0, 352, 353, 354, 355, 356, 357, 358, 1, 359, 360, 361, 362, 363]"
J50,ITIC,-5.13,-3.16,-5.574146341463415,-3.915,0.5,CF,_,150.0,PEDOT:PSS,PDINO,4.8,4.87,0.71,53.0,"[<rdkit.Chem.rdchem.Mol object at 0x7fdd149a2f10>, <rdkit.Chem.rdchem.Mol object at 0x7fdd149a2ff0>, <rdkit.Chem.rdchem.Mol object at 0x7fdd149a2ce0>, <rdkit.Chem.rdchem.Mol object at 0x7fdd149a23b0>, <rdkit.Chem.rdchem.Mol object at 0x7fdd149a2730>, <rdkit.Chem.rdchem.Mol object at 0x7fdd149a3530>]","[<rdkit.Chem.rdchem.Mol object at 0x7fdd149a34c0>, <rdkit.Chem.rdchem.Mol object at 0x7fdd149a0510>, <rdkit.Chem.rdchem.Mol object at 0x7fdd149a17e0>, <rdkit.Chem.rdchem.Mol object at 0x7fdd149a2c00>, <rdkit.Chem.rdchem.Mol object at 0x7fdd149a2b90>]","[<rdkit.Chem.rdchem.Mol object at 0x7fdd149a2f10>, <rdkit.Chem.rdchem.Mol object at 0x7fdd149a2ff0>, <rdkit.Chem.rdchem.Mol object at 0x7fdd149a2ce0>, <rdkit.Chem.rdchem.Mol object at 0x7fdd149a23b0>, <rdkit.Chem.rdchem.Mol object at 0x7fdd149a2730>, <rdkit.Chem.rdchem.Mol object at 0x7fdd149a3530>, '.', <rdkit.Chem.rdchem.Mol object at 0x7fdd149a34c0>, <rdkit.Chem.rdchem.Mol object at 0x7fdd149a0510>, <rdkit.Chem.rdchem.Mol object at 0x7fdd149a17e0>, <rdkit.Chem.rdchem.Mol object at 0x7fdd149a2c00>, <rdkit.Chem.rdchem.Mol object at 0x7fdd149a2b90>]","[0, 0, 0, 0, 0, 364, 365, 366, 367, 368, 369, 1, 370, 371, 372, 373, 374]"
J51,ITIC,-5.24,-3.056666666666666,-5.574146341463415,-3.915,0.5,CF,_,150.0,PEDOT:PSS,PDINO,9.26,9.32,0.82,69.0,"[<rdkit.Chem.rdchem.Mol object at 0x7fdd149a2dc0>, <rdkit.Chem.rdchem.Mol object at 0x7fdd149a2500>, <rdkit.Chem.rdchem.Mol object at 0x7fdd149a3450>, <rdkit.Chem.rdchem.Mol object at 0x7fdd149a2a40>, <rdkit.Chem.rdchem.Mol object at 0x7fdd149a3290>, <rdkit.Chem.rdchem.Mol object at 0x7fdd149a3a70>]","[<rdkit.Chem.rdchem.Mol object at 0x7fdd149a3840>, <rdkit.Chem.rdchem.Mol object at 0x7fdd149a36f0>, <rdkit.Chem.rdchem.Mol object at 0x7fdd149a35a0>, <rdkit.Chem.rdchem.Mol object at 0x7fdd149a3140>, <rdkit.Chem.rdchem.Mol object at 0x7fdd149a1150>]","[<rdkit.Chem.rdchem.Mol object at 0x7fdd149a2dc0>, <rdkit.Chem.rdchem.Mol object at 0x7fdd149a2500>, <rdkit.Chem.rdchem.Mol object at 0x7fdd149a3450>, <rdkit.Chem.rdchem.Mol object at 0x7fdd149a2a40>, <rdkit.Chem.rdchem.Mol object at 0x7fdd149a3290>, <rdkit.Chem.rdchem.Mol object at 0x7fdd149a3a70>, '.', <rdkit.Chem.rdchem.Mol object at 0x7fdd149a3840>, <rdkit.Chem.rdchem.Mol object at 0x7fdd149a36f0>, <rdkit.Chem.rdchem.Mol object at 0x7fdd149a35a0>, <rdkit.Chem.rdchem.Mol object at 0x7fdd149a3140>, <rdkit.Chem.rdchem.Mol object at 0x7fdd149a1150>]","[0, 0, 0, 0, 0, 375, 376, 377, 378, 379, 380, 1, 381, 382, 383, 384, 385]"
J52,ITIC,-5.218571428571429,-3.341428571428572,-5.574146341463415,-3.915,1.0,CF,_,100.0,PEDOT:PSS,PDINO,5.51,5.53,0.73,57.8,"[<rdkit.Chem.rdchem.Mol object at 0x7fdd149a2ab0>, <rdkit.Chem.rdchem.Mol object at 0x7fdd149a3300>, <rdkit.Chem.rdchem.Mol object at 0x7fdd149a3990>, <rdkit.Chem.rdchem.Mol object at 0x7fdd149a29d0>, <rdkit.Chem.rdchem.Mol object at 0x7fdd149a37d0>, <rdkit.Chem.rdchem.Mol object at 0x7fdd149a3f40>]","[<rdkit.Chem.rdchem.Mol object at 0x7fdd149a3d10>, <rdkit.Chem.rdchem.Mol object at 0x7fdd149a3c30>, <rdkit.Chem.rdchem.Mol object at 0x7fdd149a3ae0>, <rdkit.Chem.rdchem.Mol object at 0x7fdd149a3a00>, <rdkit.Chem.rdchem.Mol object at 0x7fdd149a30d0>]","[<rdkit.Chem.rdchem.Mol object at 0x7fdd149a2ab0>, <rdkit.Chem.rdchem.Mol object at 0x7fdd149a3300>, <rdkit.Chem.rdchem.Mol object at 0x7fdd149a3990>, <rdkit.Chem.rdchem.Mol object at 0x7fdd149a29d0>, <rdkit.Chem.rdchem.Mol object at 0x7fdd149a37d0>, <rdkit.Chem.rdchem.Mol object at 0x7fdd149a3f40>, '.', <rdkit.Chem.rdchem.Mol object at 0x7fdd149a3d10>, <rdkit.Chem.rdchem.Mol object at 0x7fdd149a3c30>, <rdkit.Chem.rdchem.Mol object at 0x7fdd149a3ae0>, <rdkit.Chem.rdchem.Mol object at 0x7fdd149a3a00>, <rdkit.Chem.rdchem.Mol object at 0x7fdd149a30d0>]","[0, 0, 0, 0, 0, 386, 387, 388, 389, 390, 391, 1, 392, 393, 394, 395, 396]"
J60,ITIC,-5.32,-3.08,-5.574146341463415,-3.915,1.0,CF,_,100.0,PEDOT:PSS,PDINO,8.97,8.97,0.91,60.38,"[<rdkit.Chem.rdchem.Mol object at 0x7fdd149a2d50>, <rdkit.Chem.rdchem.Mol object at 0x7fdd149a3220>, <rdkit.Chem.rdchem.Mol object at 0x7fdd149a2ea0>, <rdkit.Chem.rdchem.Mol object at 0x7fdd149a2880>, <rdkit.Chem.rdchem.Mol object at 0x7fdd149a3bc0>, <rdkit.Chem.rdchem.Mol object at 0x7fdd149a3920>, <rdkit.Chem.rdchem.Mol object at 0x7fdd14928510>]","[<rdkit.Chem.rdchem.Mol object at 0x7fdd149a33e0>, <rdkit.Chem.rdchem.Mol object at 0x7fdd149a38b0>, <rdkit.Chem.rdchem.Mol object at 0x7fdd149a3ca0>, <rdkit.Chem.rdchem.Mol object at 0x7fdd149a15b0>, <rdkit.Chem.rdchem.Mol object at 0x7fdd14928430>]","[<rdkit.Chem.rdchem.Mol object at 0x7fdd149a2d50>, <rdkit.Chem.rdchem.Mol object at 0x7fdd149a3220>, <rdkit.Chem.rdchem.Mol object at 0x7fdd149a2ea0>, <rdkit.Chem.rdchem.Mol object at 0x7fdd149a2880>, <rdkit.Chem.rdchem.Mol object at 0x7fdd149a3bc0>, <rdkit.Chem.rdchem.Mol object at 0x7fdd149a3920>, <rdkit.Chem.rdchem.Mol object at 0x7fdd14928510>, '.', <rdkit.Chem.rdchem.Mol object at 0x7fdd149a33e0>, <rdkit.Chem.rdchem.Mol object at 0x7fdd149a38b0>, <rdkit.Chem.rdchem.Mol object at 0x7fdd149a3ca0>, <rdkit.Chem.rdchem.Mol object at 0x7fdd149a15b0>, <rdkit.Chem.rdchem.Mol object at 0x7fdd14928430>]","[0, 0, 0, 0, 397, 398, 399, 400, 401, 402, 403, 1, 404, 405, 406, 407, 408]"
J61,ITIC,-5.303333333333334,-3.151666666666667,-5.574146341463415,-3.915,1.0,CF,_,100.0,PEDOT:PSS,PDINO,9.53,9.54,0.89,61.48,"[<rdkit.Chem.rdchem.Mol object at 0x7fdd149a3d80>, <rdkit.Chem.rdchem.Mol object at 0x7fdd149a1690>, <rdkit.Chem.rdchem.Mol object at 0x7fdd149a2e30>, <rdkit.Chem.rdchem.Mol object at 0x7fdd149a3060>, <rdkit.Chem.rdchem.Mol object at 0x7fdd149283c0>, <rdkit.Chem.rdchem.Mol object at 0x7fdd149285f0>, <rdkit.Chem.rdchem.Mol object at 0x7fdd14928a50>]","[<rdkit.Chem.rdchem.Mol object at 0x7fdd149a2f80>, <rdkit.Chem.rdchem.Mol object at 0x7fdd149a3680>, <rdkit.Chem.rdchem.Mol object at 0x7fdd149a3df0>, <rdkit.Chem.rdchem.Mol object at 0x7fdd149a31b0>, <rdkit.Chem.rdchem.Mol object at 0x7fdd14928350>]","[<rdkit.Chem.rdchem.Mol object at 0x7fdd149a3d80>, <rdkit.Chem.rdchem.Mol object at 0x7fdd149a1690>, <rdkit.Chem.rdchem.Mol object at 0x7fdd149a2e30>, <rdkit.Chem.rdchem.Mol object at 0x7fdd149a3060>, <rdkit.Chem.rdchem.Mol object at 0x7fdd149283c0>, <rdkit.Chem.rdchem.Mol object at 0x7fdd149285f0>, <rdkit.Chem.rdchem.Mol object at 0x7fdd14928a50>, '.', <rdkit.Chem.rdchem.Mol object at 0x7fdd149a2f80>, <rdkit.Chem.rdchem.Mol object at 0x7fdd149a3680>, <rdkit.Chem.rdchem.Mol object at 0x7fdd149a3df0>, <rdkit.Chem.rdchem.Mol object at 0x7fdd149a31b0>, <rdkit.Chem.rdchem.Mol object at 0x7fdd14928350>]","[0, 0, 0, 0, 409, 410, 411, 412, 413, 414, 415, 1, 416, 417, 418, 419, 420]"
J61,ITIC,-5.303333333333334,-3.151666666666667,-5.574146341463415,-3.915,1.0,CF,_,130.0,PEDOT:PSS,PDINO,10.57,10.57,0.898,65.49,"[<rdkit.Chem.rdchem.Mol object at 0x7fdd149a3e60>, <rdkit.Chem.rdchem.Mol object at 0x7fdd149a0cf0>, <rdkit.Chem.rdchem.Mol object at 0x7fdd149a3ed0>, <rdkit.Chem.rdchem.Mol object at 0x7fdd14928580>, <rdkit.Chem.rdchem.Mol object at 0x7fdd14928200>, <rdkit.Chem.rdchem.Mol object at 0x7fdd14928270>, <rdkit.Chem.rdchem.Mol object at 0x7fdd14928f90>]","[<rdkit.Chem.rdchem.Mol object at 0x7fdd149a3760>, <rdkit.Chem.rdchem.Mol object at 0x7fdd149284a0>, <rdkit.Chem.rdchem.Mol object at 0x7fdd149a3610>, <rdkit.Chem.rdchem.Mol object at 0x7fdd14928dd0>, <rdkit.Chem.rdchem.Mol object at 0x7fdd149286d0>]","[<rdkit.Chem.rdchem.Mol object at 0x7fdd149a3e60>, <rdkit.Chem.rdchem.Mol object at 0x7fdd149a0cf0>, <rdkit.Chem.rdchem.Mol object at 0x7fdd149a3ed0>, <rdkit.Chem.rdchem.Mol object at 0x7fdd14928580>, <rdkit.Chem.rdchem.Mol object at 0x7fdd14928200>, <rdkit.Chem.rdchem.Mol object at 0x7fdd14928270>, <rdkit.Chem.rdchem.Mol object at 0x7fdd14928f90>, '.', <rdkit.Chem.rdchem.Mol object at 0x7fdd149a3760>, <rdkit.Chem.rdchem.Mol object at 0x7fdd149284a0>, <rdkit.Chem.rdchem.Mol object at 0x7fdd149a3610>, <rdkit.Chem.rdchem.Mol object at 0x7fdd14928dd0>, <rdkit.Chem.rdchem.Mol object at 0x7fdd149286d0>]","[0, 0, 0, 0, 421, 422, 423, 424, 425, 426, 427, 1, 428, 429, 430, 431, 432]"
J61,m-ITIC,-5.303333333333334,-3.151666666666667,-5.526666666666667,-3.8515384615384622,1.0,CF,_,130.0,PEDOT:PSS,PDINO,11.77,11.78,0.912,70.55,"[<rdkit.Chem.rdchem.Mol object at 0x7fdd149a0dd0>, <rdkit.Chem.rdchem.Mol object at 0x7fdd149a3370>, <rdkit.Chem.rdchem.Mol object at 0x7fdd149a1fc0>, <rdkit.Chem.rdchem.Mol object at 0x7fdd14928c80>, <rdkit.Chem.rdchem.Mol object at 0x7fdd149280b0>, <rdkit.Chem.rdchem.Mol object at 0x7fdd149289e0>, <rdkit.Chem.rdchem.Mol object at 0x7fdd149294d0>]","[<rdkit.Chem.rdchem.Mol object at 0x7fdd14929540>, <rdkit.Chem.rdchem.Mol object at 0x7fdd14929070>, <rdkit.Chem.rdchem.Mol object at 0x7fdd149a2420>, <rdkit.Chem.rdchem.Mol object at 0x7fdd14928190>, <rdkit.Chem.rdchem.Mol object at 0x7fdd14928cf0>]","[<rdkit.Chem.rdchem.Mol object at 0x7fdd149a0dd0>, <rdkit.Chem.rdchem.Mol object at 0x7fdd149a3370>, <rdkit.Chem.rdchem.Mol object at 0x7fdd149a1fc0>, <rdkit.Chem.rdchem.Mol object at 0x7fdd14928c80>, <rdkit.Chem.rdchem.Mol object at 0x7fdd149280b0>, <rdkit.Chem.rdchem.Mol object at 0x7fdd149289e0>, <rdkit.Chem.rdchem.Mol object at 0x7fdd149294d0>, '.', <rdkit.Chem.rdchem.Mol object at 0x7fdd14929540>, <rdkit.Chem.rdchem.Mol object at 0x7fdd14929070>, <rdkit.Chem.rdchem.Mol object at 0x7fdd149a2420>, <rdkit.Chem.rdchem.Mol object at 0x7fdd14928190>, <rdkit.Chem.rdchem.Mol object at 0x7fdd14928cf0>]","[0, 0, 0, 0, 433, 434, 435, 436, 437, 438, 439, 1, 440, 441, 442, 443, 444]"
J61-F,ITIC,-5.45,-2.91,-5.574146341463415,-3.915,0.667,CF,_,170.0,PEDOT:PSS,PDINO,8.24,8.24,0.95,66.1,"[<rdkit.Chem.rdchem.Mol object at 0x7fdd149a26c0>, <rdkit.Chem.rdchem.Mol object at 0x7fdd14928b30>, <rdkit.Chem.rdchem.Mol object at 0x7fdd149a3b50>, <rdkit.Chem.rdchem.Mol object at 0x7fdd14928ba0>, <rdkit.Chem.rdchem.Mol object at 0x7fdd14929230>, <rdkit.Chem.rdchem.Mol object at 0x7fdd14928f20>, <rdkit.Chem.rdchem.Mol object at 0x7fdd14928740>, <rdkit.Chem.rdchem.Mol object at 0x7fdd14929a80>]","[<rdkit.Chem.rdchem.Mol object at 0x7fdd149295b0>, <rdkit.Chem.rdchem.Mol object at 0x7fdd14928c10>, <rdkit.Chem.rdchem.Mol object at 0x7fdd14928120>, <rdkit.Chem.rdchem.Mol object at 0x7fdd14928ac0>, <rdkit.Chem.rdchem.Mol object at 0x7fdd14928660>]","[<rdkit.Chem.rdchem.Mol object at 0x7fdd149a26c0>, <rdkit.Chem.rdchem.Mol object at 0x7fdd14928b30>, <rdkit.Chem.rdchem.Mol object at 0x7fdd149a3b50>, <rdkit.Chem.rdchem.Mol object at 0x7fdd14928ba0>, <rdkit.Chem.rdchem.Mol object at 0x7fdd14929230>, <rdkit.Chem.rdchem.Mol object at 0x7fdd14928f20>, <rdkit.Chem.rdchem.Mol object at 0x7fdd14928740>, <rdkit.Chem.rdchem.Mol object at 0x7fdd14929a80>, '.', <rdkit.Chem.rdchem.Mol object at 0x7fdd149295b0>, <rdkit.Chem.rdchem.Mol object at 0x7fdd14928c10>, <rdkit.Chem.rdchem.Mol object at 0x7fdd14928120>, <rdkit.Chem.rdchem.Mol object at 0x7fdd14928ac0>, <rdkit.Chem.rdchem.Mol object at 0x7fdd14928660>]","[0, 0, 0, 445, 446, 447, 448, 449, 450, 451, 452, 1, 453, 454, 455, 456, 457]"
J62,ITIC,-5.31,-3.08,-5.574146341463415,-3.915,1.5,CF,_,25.0,PEDOT:PSS,PDINO,9.09,9.09,0.904,62.36,"[<rdkit.Chem.rdchem.Mol object at 0x7fdd149a11c0>, <rdkit.Chem.rdchem.Mol object at 0x7fdd14928eb0>, <rdkit.Chem.rdchem.Mol object at 0x7fdd14928820>, <rdkit.Chem.rdchem.Mol object at 0x7fdd14929150>, <rdkit.Chem.rdchem.Mol object at 0x7fdd14929310>, <rdkit.Chem.rdchem.Mol object at 0x7fdd149297e0>, <rdkit.Chem.rdchem.Mol object at 0x7fdd14929fc0>]","[<rdkit.Chem.rdchem.Mol object at 0x7fdd14929b60>, <rdkit.Chem.rdchem.Mol object at 0x7fdd149290e0>, <rdkit.Chem.rdchem.Mol object at 0x7fdd14929700>, <rdkit.Chem.rdchem.Mol object at 0x7fdd14929a10>, <rdkit.Chem.rdchem.Mol object at 0x7fdd14929850>]","[<rdkit.Chem.rdchem.Mol object at 0x7fdd149a11c0>, <rdkit.Chem.rdchem.Mol object at 0x7fdd14928eb0>, <rdkit.Chem.rdchem.Mol object at 0x7fdd14928820>, <rdkit.Chem.rdchem.Mol object at 0x7fdd14929150>, <rdkit.Chem.rdchem.Mol object at 0x7fdd14929310>, <rdkit.Chem.rdchem.Mol object at 0x7fdd149297e0>, <rdkit.Chem.rdchem.Mol object at 0x7fdd14929fc0>, '.', <rdkit.Chem.rdchem.Mol object at 0x7fdd14929b60>, <rdkit.Chem.rdchem.Mol object at 0x7fdd149290e0>, <rdkit.Chem.rdchem.Mol object at 0x7fdd14929700>, <rdkit.Chem.rdchem.Mol object at 0x7fdd14929a10>, <rdkit.Chem.rdchem.Mol object at 0x7fdd14929850>]","[0, 0, 0, 0, 458, 459, 460, 461, 462, 463, 464, 1, 465, 466, 467, 468, 469]"
J63,ITIC,-5.28,-3.04,-5.574146341463415,-3.915,1.5,CF,_,25.0,PEDOT:PSS,PDINO,7.38,7.36,0.882,53.11,"[<rdkit.Chem.rdchem.Mol object at 0x7fdd149a1d20>, <rdkit.Chem.rdchem.Mol object at 0x7fdd149282e0>, <rdkit.Chem.rdchem.Mol object at 0x7fdd149293f0>, <rdkit.Chem.rdchem.Mol object at 0x7fdd1492a180>, <rdkit.Chem.rdchem.Mol object at 0x7fdd149299a0>, <rdkit.Chem.rdchem.Mol object at 0x7fdd149292a0>, <rdkit.Chem.rdchem.Mol object at 0x7fdd1492a500>]","[<rdkit.Chem.rdchem.Mol object at 0x7fdd1492a2d0>, <rdkit.Chem.rdchem.Mol object at 0x7fdd14929930>, <rdkit.Chem.rdchem.Mol object at 0x7fdd1492a030>, <rdkit.Chem.rdchem.Mol object at 0x7fdd149298c0>, <rdkit.Chem.rdchem.Mol object at 0x7fdd149291c0>]","[<rdkit.Chem.rdchem.Mol object at 0x7fdd149a1d20>, <rdkit.Chem.rdchem.Mol object at 0x7fdd149282e0>, <rdkit.Chem.rdchem.Mol object at 0x7fdd149293f0>, <rdkit.Chem.rdchem.Mol object at 0x7fdd1492a180>, <rdkit.Chem.rdchem.Mol object at 0x7fdd149299a0>, <rdkit.Chem.rdchem.Mol object at 0x7fdd149292a0>, <rdkit.Chem.rdchem.Mol object at 0x7fdd1492a500>, '.', <rdkit.Chem.rdchem.Mol object at 0x7fdd1492a2d0>, <rdkit.Chem.rdchem.Mol object at 0x7fdd14929930>, <rdkit.Chem.rdchem.Mol object at 0x7fdd1492a030>, <rdkit.Chem.rdchem.Mol object at 0x7fdd149298c0>, <rdkit.Chem.rdchem.Mol object at 0x7fdd149291c0>]","[0, 0, 0, 0, 470, 471, 472, 473, 474, 475, 476, 1, 477, 478, 479, 480, 481]"
J64,ITIC,-5.33,-3.09,-5.574146341463415,-3.915,1.5,CF,_,25.0,PEDOT:PSS,PDINO,7.51,7.51,0.908,54.32,"[<rdkit.Chem.rdchem.Mol object at 0x7fdd14928970>, <rdkit.Chem.rdchem.Mol object at 0x7fdd14929bd0>, <rdkit.Chem.rdchem.Mol object at 0x7fdd14928040>, <rdkit.Chem.rdchem.Mol object at 0x7fdd1492a110>, <rdkit.Chem.rdchem.Mol object at 0x7fdd14929d90>, <rdkit.Chem.rdchem.Mol object at 0x7fdd1492a6c0>, <rdkit.Chem.rdchem.Mol object at 0x7fdd1492a3b0>, <rdkit.Chem.rdchem.Mol object at 0x7fdd1492ab20>]","[<rdkit.Chem.rdchem.Mol object at 0x7fdd1492a8f0>, <rdkit.Chem.rdchem.Mol object at 0x7fdd14929620>, <rdkit.Chem.rdchem.Mol object at 0x7fdd14929690>, <rdkit.Chem.rdchem.Mol object at 0x7fdd1492a5e0>, <rdkit.Chem.rdchem.Mol object at 0x7fdd14929c40>]","[<rdkit.Chem.rdchem.Mol object at 0x7fdd14928970>, <rdkit.Chem.rdchem.Mol object at 0x7fdd14929bd0>, <rdkit.Chem.rdchem.Mol object at 0x7fdd14928040>, <rdkit.Chem.rdchem.Mol object at 0x7fdd1492a110>, <rdkit.Chem.rdchem.Mol object at 0x7fdd14929d90>, <rdkit.Chem.rdchem.Mol object at 0x7fdd1492a6c0>, <rdkit.Chem.rdchem.Mol object at 0x7fdd1492a3b0>, <rdkit.Chem.rdchem.Mol object at 0x7fdd1492ab20>, '.', <rdkit.Chem.rdchem.Mol object at 0x7fdd1492a8f0>, <rdkit.Chem.rdchem.Mol object at 0x7fdd14929620>, <rdkit.Chem.rdchem.Mol object at 0x7fdd14929690>, <rdkit.Chem.rdchem.Mol object at 0x7fdd1492a5e0>, <rdkit.Chem.rdchem.Mol object at 0x7fdd14929c40>]","[0, 0, 0, 482, 483, 484, 485, 486, 487, 488, 489, 1, 490, 491, 492, 493, 494]"