Donor,Acceptor,HOMO_D_eV,LUMO_D_eV,HOMO_A_eV,LUMO_A_eV,D_A_ratio_m_m,solvent,solvent_additive,annealing_temperature,hole_contact_layer,electron_contact_layer,PCE_percent,calc_PCE_percent,Voc_V,FF_percent,Donor_BRICS,Acceptor_BRICS,DA_pair_BRICS,DA_tokenized_BRICS
PTB7-Th,ITCT,-5.204782608695651,-3.5391891891891896,-5.596666666666667,-3.796666666666667,0.833,CF,DIO,80.0,MoOx,ZnO,10.42,10.35,0.95,72.0,"[<rdkit.Chem.rdchem.Mol object at 0x7fdd14775460>, <rdkit.Chem.rdchem.Mol object at 0x7fdd14774dd0>, <rdkit.Chem.rdchem.Mol object at 0x7fdd14775d20>, <rdkit.Chem.rdchem.Mol object at 0x7fdd14775e00>, <rdkit.Chem.rdchem.Mol object at 0x7fdd14776490>, <rdkit.Chem.rdchem.Mol object at 0x7fdd14775e70>, <rdkit.Chem.rdchem.Mol object at 0x7fdd14776420>]","[<rdkit.Chem.rdchem.Mol object at 0x7fdd14775a10>, <rdkit.Chem.rdchem.Mol object at 0x7fdd147762d0>, <rdkit.Chem.rdchem.Mol object at 0x7fdd14774510>, <rdkit.Chem.rdchem.Mol object at 0x7fdd147767a0>, <rdkit.Chem.rdchem.Mol object at 0x7fdd14775c40>]","[<rdkit.Chem.rdchem.Mol object at 0x7fdd14775460>, <rdkit.Chem.rdchem.Mol object at 0x7fdd14774dd0>, <rdkit.Chem.rdchem.Mol object at 0x7fdd14775d20>, <rdkit.Chem.rdchem.Mol object at 0x7fdd14775e00>, <rdkit.Chem.rdchem.Mol object at 0x7fdd14776490>, <rdkit.Chem.rdchem.Mol object at 0x7fdd14775e70>, <rdkit.Chem.rdchem.Mol object at 0x7fdd14776420>, '.', <rdkit.Chem.rdchem.Mol object at 0x7fdd14775a10>, <rdkit.Chem.rdchem.Mol object at 0x7fdd147762d0>, <rdkit.Chem.rdchem.Mol object at 0x7fdd14774510>, <rdkit.Chem.rdchem.Mol object at 0x7fdd147767a0>, <rdkit.Chem.rdchem.Mol object at 0x7fdd14775c40>]","[0, 0, 0, 0, 4523, 4524, 4525, 4526, 4527, 4528, 4529, 1, 4530, 4531, 4532, 4533, 4534]"
PTB7-Th,ITIC,-5.204782608695651,-3.5391891891891896,-5.574146341463415,-3.915,0.769,CF,DIO,25.0,PEDOT:PSS,PDIN,6.8,6.79,0.81,59.0,"[<rdkit.Chem.rdchem.Mol object at 0x7fdd14776ab0>, <rdkit.Chem.rdchem.Mol object at 0x7fdd14776b20>, <rdkit.Chem.rdchem.Mol object at 0x7fdd14776180>, <rdkit.Chem.rdchem.Mol object at 0x7fdd147763b0>, <rdkit.Chem.rdchem.Mol object at 0x7fdd147751c0>, <rdkit.Chem.rdchem.Mol object at 0x7fdd147765e0>, <rdkit.Chem.rdchem.Mol object at 0x7fdd14775850>]","[<rdkit.Chem.rdchem.Mol object at 0x7fdd147746d0>, <rdkit.Chem.rdchem.Mol object at 0x7fdd14775380>, <rdkit.Chem.rdchem.Mol object at 0x7fdd14774d60>, <rdkit.Chem.rdchem.Mol object at 0x7fdd14776030>, <rdkit.Chem.rdchem.Mol object at 0x7fdd14775000>]","[<rdkit.Chem.rdchem.Mol object at 0x7fdd14776ab0>, <rdkit.Chem.rdchem.Mol object at 0x7fdd14776b20>, <rdkit.Chem.rdchem.Mol object at 0x7fdd14776180>, <rdkit.Chem.rdchem.Mol object at 0x7fdd147763b0>, <rdkit.Chem.rdchem.Mol object at 0x7fdd147751c0>, <rdkit.Chem.rdchem.Mol object at 0x7fdd147765e0>, <rdkit.Chem.rdchem.Mol object at 0x7fdd14775850>, '.', <rdkit.Chem.rdchem.Mol object at 0x7fdd147746d0>, <rdkit.Chem.rdchem.Mol object at 0x7fdd14775380>, <rdkit.Chem.rdchem.Mol object at 0x7fdd14774d60>, <rdkit.Chem.rdchem.Mol object at 0x7fdd14776030>, <rdkit.Chem.rdchem.Mol object at 0x7fdd14775000>]","[0, 0, 0, 0, 4535, 4536, 4537, 4538, 4539, 4540, 4541, 1, 4542, 4543, 4544, 4545, 4546]"
PTB7-Th,IDIC,-5.204782608695651,-3.5391891891891896,-5.706,-4.002666666666667,1.0,CF,_,25.0,MoOx,ZnO,5.24,4.94,0.81,56.0,"[<rdkit.Chem.rdchem.Mol object at 0x7fdd14776c00>, <rdkit.Chem.rdchem.Mol object at 0x7fdd14776d50>, <rdkit.Chem.rdchem.Mol object at 0x7fdd14776ce0>, <rdkit.Chem.rdchem.Mol object at 0x7fdd14774e40>, <rdkit.Chem.rdchem.Mol object at 0x7fdd14776810>, <rdkit.Chem.rdchem.Mol object at 0x7fdd147761f0>, <rdkit.Chem.rdchem.Mol object at 0x7fdd14775cb0>]","[<rdkit.Chem.rdchem.Mol object at 0x7fdd14775bd0>, <rdkit.Chem.rdchem.Mol object at 0x7fdd147768f0>, <rdkit.Chem.rdchem.Mol object at 0x7fdd147758c0>, <rdkit.Chem.rdchem.Mol object at 0x7fdd14775fc0>]","[<rdkit.Chem.rdchem.Mol object at 0x7fdd14776c00>, <rdkit.Chem.rdchem.Mol object at 0x7fdd14776d50>, <rdkit.Chem.rdchem.Mol object at 0x7fdd14776ce0>, <rdkit.Chem.rdchem.Mol object at 0x7fdd14774e40>, <rdkit.Chem.rdchem.Mol object at 0x7fdd14776810>, <rdkit.Chem.rdchem.Mol object at 0x7fdd147761f0>, <rdkit.Chem.rdchem.Mol object at 0x7fdd14775cb0>, '.', <rdkit.Chem.rdchem.Mol object at 0x7fdd14775bd0>, <rdkit.Chem.rdchem.Mol object at 0x7fdd147768f0>, <rdkit.Chem.rdchem.Mol object at 0x7fdd147758c0>, <rdkit.Chem.rdchem.Mol object at 0x7fdd14775fc0>]","[0, 0, 0, 0, 0, 4547, 4548, 4549, 4550, 4551, 4552, 4553, 1, 4554, 4555, 4556, 4557]"
PTB7-Th,IEICO-4F,-5.204782608695651,-3.5391891891891896,-5.309971428571429,-3.851028571428572,0.667,CB,_,100.0,PEDOT:PSS,PFN-Br,10.0,9.95,0.74,59.0,"[<rdkit.Chem.rdchem.Mol object at 0x7fdd147769d0>, <rdkit.Chem.rdchem.Mol object at 0x7fdd147753f0>, <rdkit.Chem.rdchem.Mol object at 0x7fdd14775af0>, <rdkit.Chem.rdchem.Mol object at 0x7fdd14776a40>, <rdkit.Chem.rdchem.Mol object at 0x7fdd14776c70>, <rdkit.Chem.rdchem.Mol object at 0x7fdd14774430>, <rdkit.Chem.rdchem.Mol object at 0x7fdd147770d0>]","[<rdkit.Chem.rdchem.Mol object at 0x7fdd1476fed0>, <rdkit.Chem.rdchem.Mol object at 0x7fdd14776e30>, <rdkit.Chem.rdchem.Mol object at 0x7fdd14774820>, <rdkit.Chem.rdchem.Mol object at 0x7fdd14775770>, <rdkit.Chem.rdchem.Mol object at 0x7fdd14777290>, <rdkit.Chem.rdchem.Mol object at 0x7fdd14777220>, <rdkit.Chem.rdchem.Mol object at 0x7fdd14777a00>, <rdkit.Chem.rdchem.Mol object at 0x7fdd14777680>]","[<rdkit.Chem.rdchem.Mol object at 0x7fdd147769d0>, <rdkit.Chem.rdchem.Mol object at 0x7fdd147753f0>, <rdkit.Chem.rdchem.Mol object at 0x7fdd14775af0>, <rdkit.Chem.rdchem.Mol object at 0x7fdd14776a40>, <rdkit.Chem.rdchem.Mol object at 0x7fdd14776c70>, <rdkit.Chem.rdchem.Mol object at 0x7fdd14774430>, <rdkit.Chem.rdchem.Mol object at 0x7fdd147770d0>, '.', <rdkit.Chem.rdchem.Mol object at 0x7fdd1476fed0>, <rdkit.Chem.rdchem.Mol object at 0x7fdd14776e30>, <rdkit.Chem.rdchem.Mol object at 0x7fdd14774820>, <rdkit.Chem.rdchem.Mol object at 0x7fdd14775770>, <rdkit.Chem.rdchem.Mol object at 0x7fdd14777290>, <rdkit.Chem.rdchem.Mol object at 0x7fdd14777220>, <rdkit.Chem.rdchem.Mol object at 0x7fdd14777a00>, <rdkit.Chem.rdchem.Mol object at 0x7fdd14777680>]","[0, 4558, 4559, 4560, 4561, 4562, 4563, 4564, 1, 4565, 4566, 4567, 4568, 4569, 4570, 4571, 4572]"
PTB7-Th,SFBRCN,-5.204782608695651,-3.5391891891891896,-5.93,-3.86,0.833,CB,DIO,25.0,MoO3,ZnO,10.12,10.09,0.9,65.0,"[<rdkit.Chem.rdchem.Mol object at 0x7fdd14777c30>, <rdkit.Chem.rdchem.Mol object at 0x7fdd147775a0>, <rdkit.Chem.rdchem.Mol object at 0x7fdd147776f0>, <rdkit.Chem.rdchem.Mol object at 0x7fdd14777840>, <rdkit.Chem.rdchem.Mol object at 0x7fdd14776b90>, <rdkit.Chem.rdchem.Mol object at 0x7fdd14777370>, <rdkit.Chem.rdchem.Mol object at 0x7fdd14777300>]","[<rdkit.Chem.rdchem.Mol object at 0x7fdd14777610>, <rdkit.Chem.rdchem.Mol object at 0x7fdd14776570>, <rdkit.Chem.rdchem.Mol object at 0x7fdd147773e0>, <rdkit.Chem.rdchem.Mol object at 0x7fdd14776340>, <rdkit.Chem.rdchem.Mol object at 0x7fdd147778b0>]","[<rdkit.Chem.rdchem.Mol object at 0x7fdd14777c30>, <rdkit.Chem.rdchem.Mol object at 0x7fdd147775a0>, <rdkit.Chem.rdchem.Mol object at 0x7fdd147776f0>, <rdkit.Chem.rdchem.Mol object at 0x7fdd14777840>, <rdkit.Chem.rdchem.Mol object at 0x7fdd14776b90>, <rdkit.Chem.rdchem.Mol object at 0x7fdd14777370>, <rdkit.Chem.rdchem.Mol object at 0x7fdd14777300>, '.', <rdkit.Chem.rdchem.Mol object at 0x7fdd14777610>, <rdkit.Chem.rdchem.Mol object at 0x7fdd14776570>, <rdkit.Chem.rdchem.Mol object at 0x7fdd147773e0>, <rdkit.Chem.rdchem.Mol object at 0x7fdd14776340>, <rdkit.Chem.rdchem.Mol object at 0x7fdd147778b0>]","[0, 0, 0, 0, 4573, 4574, 4575, 4576, 4577, 4578, 4579, 1, 4580, 4581, 4582, 4583, 4584]"
PTQ10,IDIC,-5.54,-2.98,-5.706,-4.002666666666667,1.0,CF,_,140.0,PEDOT:PSS,PDINO,12.7,12.7,0.969,73.6,"[<rdkit.Chem.rdchem.Mol object at 0x7fdd147777d0>, <rdkit.Chem.rdchem.Mol object at 0x7fdd14776f80>, <rdkit.Chem.rdchem.Mol object at 0x7fdd14776ff0>, <rdkit.Chem.rdchem.Mol object at 0x7fdd14775310>]","[<rdkit.Chem.rdchem.Mol object at 0x7fdd14777450>, <rdkit.Chem.rdchem.Mol object at 0x7fdd14776f10>, <rdkit.Chem.rdchem.Mol object at 0x7fdd14776dc0>, <rdkit.Chem.rdchem.Mol object at 0x7fdd14777920>]","[<rdkit.Chem.rdchem.Mol object at 0x7fdd147777d0>, <rdkit.Chem.rdchem.Mol object at 0x7fdd14776f80>, <rdkit.Chem.rdchem.Mol object at 0x7fdd14776ff0>, <rdkit.Chem.rdchem.Mol object at 0x7fdd14775310>, '.', <rdkit.Chem.rdchem.Mol object at 0x7fdd14777450>, <rdkit.Chem.rdchem.Mol object at 0x7fdd14776f10>, <rdkit.Chem.rdchem.Mol object at 0x7fdd14776dc0>, <rdkit.Chem.rdchem.Mol object at 0x7fdd14777920>]","[0, 0, 0, 0, 0, 0, 0, 0, 4585, 4586, 4587, 4588, 1, 4589, 4590, 4591, 4592]"
PBDB-T,IDTIC,-5.297714285714285,-3.4170000000000003,-5.885,-3.91,1.0,CB,_,25.0,MoOx,ZnO/PFN-Br,5.67,6.01,0.84,56.3,"[<rdkit.Chem.rdchem.Mol object at 0x7fdd1476c820>, <rdkit.Chem.rdchem.Mol object at 0x7fdd14777ae0>, <rdkit.Chem.rdchem.Mol object at 0x7fdd14777ed0>, <rdkit.Chem.rdchem.Mol object at 0x7fdd14778200>, <rdkit.Chem.rdchem.Mol object at 0x7fdd14778ac0>]","[<rdkit.Chem.rdchem.Mol object at 0x7fdd14776650>, <rdkit.Chem.rdchem.Mol object at 0x7fdd14774c80>, <rdkit.Chem.rdchem.Mol object at 0x7fdd147766c0>, <rdkit.Chem.rdchem.Mol object at 0x7fdd14777060>]","[<rdkit.Chem.rdchem.Mol object at 0x7fdd1476c820>, <rdkit.Chem.rdchem.Mol object at 0x7fdd14777ae0>, <rdkit.Chem.rdchem.Mol object at 0x7fdd14777ed0>, <rdkit.Chem.rdchem.Mol object at 0x7fdd14778200>, <rdkit.Chem.rdchem.Mol object at 0x7fdd14778ac0>, '.', <rdkit.Chem.rdchem.Mol object at 0x7fdd14776650>, <rdkit.Chem.rdchem.Mol object at 0x7fdd14774c80>, <rdkit.Chem.rdchem.Mol object at 0x7fdd147766c0>, <rdkit.Chem.rdchem.Mol object at 0x7fdd14777060>]","[0, 0, 0, 0, 0, 0, 0, 4593, 4594, 4595, 4596, 4597, 1, 4598, 4599, 4600, 4601]"
PBDB-T,IDTTIC,-5.297714285714285,-3.4170000000000003,-5.68,-3.84,1.0,CB,_,25.0,MoOx,ZnO/PFN-Br,11.2,11.19,0.919,70.4,"[<rdkit.Chem.rdchem.Mol object at 0x7fdd14777b50>, <rdkit.Chem.rdchem.Mol object at 0x7fdd14778890>, <rdkit.Chem.rdchem.Mol object at 0x7fdd14778e40>, <rdkit.Chem.rdchem.Mol object at 0x7fdd14778430>, <rdkit.Chem.rdchem.Mol object at 0x7fdd14778eb0>]","[<rdkit.Chem.rdchem.Mol object at 0x7fdd14777f40>, <rdkit.Chem.rdchem.Mol object at 0x7fdd14779070>, <rdkit.Chem.rdchem.Mol object at 0x7fdd14775a80>, <rdkit.Chem.rdchem.Mol object at 0x7fdd14777bc0>]","[<rdkit.Chem.rdchem.Mol object at 0x7fdd14777b50>, <rdkit.Chem.rdchem.Mol object at 0x7fdd14778890>, <rdkit.Chem.rdchem.Mol object at 0x7fdd14778e40>, <rdkit.Chem.rdchem.Mol object at 0x7fdd14778430>, <rdkit.Chem.rdchem.Mol object at 0x7fdd14778eb0>, '.', <rdkit.Chem.rdchem.Mol object at 0x7fdd14777f40>, <rdkit.Chem.rdchem.Mol object at 0x7fdd14779070>, <rdkit.Chem.rdchem.Mol object at 0x7fdd14775a80>, <rdkit.Chem.rdchem.Mol object at 0x7fdd14777bc0>]","[0, 0, 0, 0, 0, 0, 0, 4602, 4603, 4604, 4605, 4606, 1, 4607, 4608, 4609, 4610]"
PTB7-Th,ITIC,-5.204782608695651,-3.5391891891891896,-5.574146341463415,-3.915,0.667,CB,_,25.0,MoOx,ZnO,7.62,7.62,0.822,66.2,"[<rdkit.Chem.rdchem.Mol object at 0x7fdd14777530>, <rdkit.Chem.rdchem.Mol object at 0x7fdd14777a70>, <rdkit.Chem.rdchem.Mol object at 0x7fdd14776ea0>, <rdkit.Chem.rdchem.Mol object at 0x7fdd147771b0>, <rdkit.Chem.rdchem.Mol object at 0x7fdd147790e0>, <rdkit.Chem.rdchem.Mol object at 0x7fdd14777760>, <rdkit.Chem.rdchem.Mol object at 0x7fdd14779380>]","[<rdkit.Chem.rdchem.Mol object at 0x7fdd14777140>, <rdkit.Chem.rdchem.Mol object at 0x7fdd147782e0>, <rdkit.Chem.rdchem.Mol object at 0x7fdd14777d10>, <rdkit.Chem.rdchem.Mol object at 0x7fdd147789e0>, <rdkit.Chem.rdchem.Mol object at 0x7fdd14778f90>]","[<rdkit.Chem.rdchem.Mol object at 0x7fdd14777530>, <rdkit.Chem.rdchem.Mol object at 0x7fdd14777a70>, <rdkit.Chem.rdchem.Mol object at 0x7fdd14776ea0>, <rdkit.Chem.rdchem.Mol object at 0x7fdd147771b0>, <rdkit.Chem.rdchem.Mol object at 0x7fdd147790e0>, <rdkit.Chem.rdchem.Mol object at 0x7fdd14777760>, <rdkit.Chem.rdchem.Mol object at 0x7fdd14779380>, '.', <rdkit.Chem.rdchem.Mol object at 0x7fdd14777140>, <rdkit.Chem.rdchem.Mol object at 0x7fdd147782e0>, <rdkit.Chem.rdchem.Mol object at 0x7fdd14777d10>, <rdkit.Chem.rdchem.Mol object at 0x7fdd147789e0>, <rdkit.Chem.rdchem.Mol object at 0x7fdd14778f90>]","[0, 0, 0, 0, 4611, 4612, 4613, 4614, 4615, 4616, 4617, 1, 4618, 4619, 4620, 4621, 4622]"
P3HT,DTFBR,-5.057777777777777,-2.989444444444445,-5.54,-3.68,1.0,o-DCB,_,100.0,PEDOT:PSS,ZrAcAc,3.68,3.59,0.71,62.0,"[<rdkit.Chem.rdchem.Mol object at 0x7fdd14777e60>, <rdkit.Chem.rdchem.Mol object at 0x7fdd14777d80>, <rdkit.Chem.rdchem.Mol object at 0x7fdd147794d0>, <rdkit.Chem.rdchem.Mol object at 0x7fdd14778660>]","[<rdkit.Chem.rdchem.Mol object at 0x7fdd14774f90>, <rdkit.Chem.rdchem.Mol object at 0x7fdd14778ba0>, <rdkit.Chem.rdchem.Mol object at 0x7fdd14779150>, <rdkit.Chem.rdchem.Mol object at 0x7fdd14779460>, <rdkit.Chem.rdchem.Mol object at 0x7fdd1477ac00>, <rdkit.Chem.rdchem.Mol object at 0x7fdd1477ab20>]","[<rdkit.Chem.rdchem.Mol object at 0x7fdd14777e60>, <rdkit.Chem.rdchem.Mol object at 0x7fdd14777d80>, <rdkit.Chem.rdchem.Mol object at 0x7fdd147794d0>, <rdkit.Chem.rdchem.Mol object at 0x7fdd14778660>, '.', <rdkit.Chem.rdchem.Mol object at 0x7fdd14774f90>, <rdkit.Chem.rdchem.Mol object at 0x7fdd14778ba0>, <rdkit.Chem.rdchem.Mol object at 0x7fdd14779150>, <rdkit.Chem.rdchem.Mol object at 0x7fdd14779460>, <rdkit.Chem.rdchem.Mol object at 0x7fdd1477ac00>, <rdkit.Chem.rdchem.Mol object at 0x7fdd1477ab20>]","[0, 0, 0, 0, 0, 0, 4623, 4624, 4625, 4626, 1, 4627, 4628, 4629, 4630, 4631, 4632]"
PBT1-C,TPT-2F,-5.449999999999999,-3.41,-5.84,-4.06,1.0,CF,DIO,100.0,MoOx,ZnO,8.33,9.28,0.974,68.6,"[<rdkit.Chem.rdchem.Mol object at 0x7fdd14777990>, <rdkit.Chem.rdchem.Mol object at 0x7fdd14777ca0>, <rdkit.Chem.rdchem.Mol object at 0x7fdd1477ab90>, <rdkit.Chem.rdchem.Mol object at 0x7fdd1477a8f0>, <rdkit.Chem.rdchem.Mol object at 0x7fdd1477a0a0>, <rdkit.Chem.rdchem.Mol object at 0x7fdd1477a570>, <rdkit.Chem.rdchem.Mol object at 0x7fdd147793f0>, <rdkit.Chem.rdchem.Mol object at 0x7fdd1477a500>, <rdkit.Chem.rdchem.Mol object at 0x7fdd14779af0>]","[<rdkit.Chem.rdchem.Mol object at 0x7fdd1477a180>, <rdkit.Chem.rdchem.Mol object at 0x7fdd1477a650>, <rdkit.Chem.rdchem.Mol object at 0x7fdd1477a7a0>, <rdkit.Chem.rdchem.Mol object at 0x7fdd147797e0>, <rdkit.Chem.rdchem.Mol object at 0x7fdd14779e00>]","[<rdkit.Chem.rdchem.Mol object at 0x7fdd14777990>, <rdkit.Chem.rdchem.Mol object at 0x7fdd14777ca0>, <rdkit.Chem.rdchem.Mol object at 0x7fdd1477ab90>, <rdkit.Chem.rdchem.Mol object at 0x7fdd1477a8f0>, <rdkit.Chem.rdchem.Mol object at 0x7fdd1477a0a0>, <rdkit.Chem.rdchem.Mol object at 0x7fdd1477a570>, <rdkit.Chem.rdchem.Mol object at 0x7fdd147793f0>, <rdkit.Chem.rdchem.Mol object at 0x7fdd1477a500>, <rdkit.Chem.rdchem.Mol object at 0x7fdd14779af0>, '.', <rdkit.Chem.rdchem.Mol object at 0x7fdd1477a180>, <rdkit.Chem.rdchem.Mol object at 0x7fdd1477a650>, <rdkit.Chem.rdchem.Mol object at 0x7fdd1477a7a0>, <rdkit.Chem.rdchem.Mol object at 0x7fdd147797e0>, <rdkit.Chem.rdchem.Mol object at 0x7fdd14779e00>]","[0, 0, 4633, 4634, 4635, 4636, 4637, 4638, 4639, 4640, 4641, 1, 4642, 4643, 4644, 4645, 4646]"
PBDB-T,4TIC-4F,-5.297714285714285,-3.4170000000000003,-5.6,-4.21,1.0,CB,_,130.0,PEDOT:PSS,C60-bissalt,7.99,7.99,0.652,57.0,"[<rdkit.Chem.rdchem.Mol object at 0x7fdd14777df0>, <rdkit.Chem.rdchem.Mol object at 0x7fdd1477a110>, <rdkit.Chem.rdchem.Mol object at 0x7fdd1477a730>, <rdkit.Chem.rdchem.Mol object at 0x7fdd14779b60>, <rdkit.Chem.rdchem.Mol object at 0x7fdd14778c10>]","[<rdkit.Chem.rdchem.Mol object at 0x7fdd14778820>, <rdkit.Chem.rdchem.Mol object at 0x7fdd14779620>, <rdkit.Chem.rdchem.Mol object at 0x7fdd1477a490>, <rdkit.Chem.rdchem.Mol object at 0x7fdd14778c80>, <rdkit.Chem.rdchem.Mol object at 0x7fdd1477a880>]","[<rdkit.Chem.rdchem.Mol object at 0x7fdd14777df0>, <rdkit.Chem.rdchem.Mol object at 0x7fdd1477a110>, <rdkit.Chem.rdchem.Mol object at 0x7fdd1477a730>, <rdkit.Chem.rdchem.Mol object at 0x7fdd14779b60>, <rdkit.Chem.rdchem.Mol object at 0x7fdd14778c10>, '.', <rdkit.Chem.rdchem.Mol object at 0x7fdd14778820>, <rdkit.Chem.rdchem.Mol object at 0x7fdd14779620>, <rdkit.Chem.rdchem.Mol object at 0x7fdd1477a490>, <rdkit.Chem.rdchem.Mol object at 0x7fdd14778c80>, <rdkit.Chem.rdchem.Mol object at 0x7fdd1477a880>]","[0, 0, 0, 0, 0, 0, 4647, 4648, 4649, 4650, 4651, 1, 4652, 4653, 4654, 4655, 4656]"
PBDB-T,6TIC-4F,-5.297714285714285,-3.4170000000000003,-5.45,-4.14,1.0,CB,_,25.0,PEDOT:PSS,C60-bissalt,11.14,11.14,0.723,67.0,"[<rdkit.Chem.rdchem.Mol object at 0x7fdd14779e70>, <rdkit.Chem.rdchem.Mol object at 0x7fdd14779850>, <rdkit.Chem.rdchem.Mol object at 0x7fdd147792a0>, <rdkit.Chem.rdchem.Mol object at 0x7fdd1477a3b0>, <rdkit.Chem.rdchem.Mol object at 0x7fdd147780b0>]","[<rdkit.Chem.rdchem.Mol object at 0x7fdd1477ac70>, <rdkit.Chem.rdchem.Mol object at 0x7fdd14778b30>, <rdkit.Chem.rdchem.Mol object at 0x7fdd1477a030>, <rdkit.Chem.rdchem.Mol object at 0x7fdd147795b0>, <rdkit.Chem.rdchem.Mol object at 0x7fdd14778350>]","[<rdkit.Chem.rdchem.Mol object at 0x7fdd14779e70>, <rdkit.Chem.rdchem.Mol object at 0x7fdd14779850>, <rdkit.Chem.rdchem.Mol object at 0x7fdd147792a0>, <rdkit.Chem.rdchem.Mol object at 0x7fdd1477a3b0>, <rdkit.Chem.rdchem.Mol object at 0x7fdd147780b0>, '.', <rdkit.Chem.rdchem.Mol object at 0x7fdd1477ac70>, <rdkit.Chem.rdchem.Mol object at 0x7fdd14778b30>, <rdkit.Chem.rdchem.Mol object at 0x7fdd1477a030>, <rdkit.Chem.rdchem.Mol object at 0x7fdd147795b0>, <rdkit.Chem.rdchem.Mol object at 0x7fdd14778350>]","[0, 0, 0, 0, 0, 0, 4657, 4658, 4659, 4660, 4661, 1, 4662, 4663, 4664, 4665, 4666]"
PBDB-T,ITBTR-C2,-5.297714285714285,-3.4170000000000003,-5.3,-3.7,1.0,CB,DIO,25.0,MoOx,ZnO,6.96,6.96,0.89,58.42,"[<rdkit.Chem.rdchem.Mol object at 0x7fdd14779ee0>, <rdkit.Chem.rdchem.Mol object at 0x7fdd14778510>, <rdkit.Chem.rdchem.Mol object at 0x7fdd147791c0>, <rdkit.Chem.rdchem.Mol object at 0x7fdd14779d20>, <rdkit.Chem.rdchem.Mol object at 0x7fdd1477aea0>]","[<rdkit.Chem.rdchem.Mol object at 0x7fdd147785f0>, <rdkit.Chem.rdchem.Mol object at 0x7fdd1477b1b0>, <rdkit.Chem.rdchem.Mol object at 0x7fdd14778900>, <rdkit.Chem.rdchem.Mol object at 0x7fdd1477aa40>]","[<rdkit.Chem.rdchem.Mol object at 0x7fdd14779ee0>, <rdkit.Chem.rdchem.Mol object at 0x7fdd14778510>, <rdkit.Chem.rdchem.Mol object at 0x7fdd147791c0>, <rdkit.Chem.rdchem.Mol object at 0x7fdd14779d20>, <rdkit.Chem.rdchem.Mol object at 0x7fdd1477aea0>, '.', <rdkit.Chem.rdchem.Mol object at 0x7fdd147785f0>, <rdkit.Chem.rdchem.Mol object at 0x7fdd1477b1b0>, <rdkit.Chem.rdchem.Mol object at 0x7fdd14778900>, <rdkit.Chem.rdchem.Mol object at 0x7fdd1477aa40>]","[0, 0, 0, 0, 0, 0, 0, 4667, 4668, 4669, 4670, 4671, 1, 4672, 4673, 4674, 4675]"
PBDB-T,ITBTR-C4,-5.297714285714285,-3.4170000000000003,-5.3,-3.71,1.0,CB,DIO,25.0,MoOx,ZnO,7.33,7.19,0.9,54.15,"[<rdkit.Chem.rdchem.Mol object at 0x7fdd14779000>, <rdkit.Chem.rdchem.Mol object at 0x7fdd1477aff0>, <rdkit.Chem.rdchem.Mol object at 0x7fdd1477a6c0>, <rdkit.Chem.rdchem.Mol object at 0x7fdd14779a10>, <rdkit.Chem.rdchem.Mol object at 0x7fdd1477b370>]","[<rdkit.Chem.rdchem.Mol object at 0x7fdd1477b060>, <rdkit.Chem.rdchem.Mol object at 0x7fdd1477b680>, <rdkit.Chem.rdchem.Mol object at 0x7fdd14779310>, <rdkit.Chem.rdchem.Mol object at 0x7fdd14779c40>]","[<rdkit.Chem.rdchem.Mol object at 0x7fdd14779000>, <rdkit.Chem.rdchem.Mol object at 0x7fdd1477aff0>, <rdkit.Chem.rdchem.Mol object at 0x7fdd1477a6c0>, <rdkit.Chem.rdchem.Mol object at 0x7fdd14779a10>, <rdkit.Chem.rdchem.Mol object at 0x7fdd1477b370>, '.', <rdkit.Chem.rdchem.Mol object at 0x7fdd1477b060>, <rdkit.Chem.rdchem.Mol object at 0x7fdd1477b680>, <rdkit.Chem.rdchem.Mol object at 0x7fdd14779310>, <rdkit.Chem.rdchem.Mol object at 0x7fdd14779c40>]","[0, 0, 0, 0, 0, 0, 0, 4676, 4677, 4678, 4679, 4680, 1, 4681, 4682, 4683, 4684]"