Donor,Acceptor,HOMO_D_eV,LUMO_D_eV,HOMO_A_eV,LUMO_A_eV,D_A_ratio_m_m,solvent,solvent_additive,annealing_temperature,hole_contact_layer,electron_contact_layer,PCE_percent,calc_PCE_percent,Voc_V,FF_percent,Donor_BRICS,Acceptor_BRICS,DA_pair_BRICS,DA_tokenized_BRICS
PffQx-T,ITIC,-5.36,-3.56,-5.574146341463415,-3.915,0.667,CF,_,170.0,PEDOT:PSS,PDINO,8.47,8.47,0.87,59.6,"[<rdkit.Chem.rdchem.Mol object at 0x7fdd147ff1b0>, <rdkit.Chem.rdchem.Mol object at 0x7fdd146103c0>, <rdkit.Chem.rdchem.Mol object at 0x7fdd14610890>, <rdkit.Chem.rdchem.Mol object at 0x7fdd14610200>, <rdkit.Chem.rdchem.Mol object at 0x7fdd14610b30>, <rdkit.Chem.rdchem.Mol object at 0x7fdd14611070>, <rdkit.Chem.rdchem.Mol object at 0x7fdd146119a0>, <rdkit.Chem.rdchem.Mol object at 0x7fdd146129d0>]","[<rdkit.Chem.rdchem.Mol object at 0x7fdd146128f0>, <rdkit.Chem.rdchem.Mol object at 0x7fdd146120a0>, <rdkit.Chem.rdchem.Mol object at 0x7fdd147ffed0>, <rdkit.Chem.rdchem.Mol object at 0x7fdd146126c0>, <rdkit.Chem.rdchem.Mol object at 0x7fdd14612180>]","[<rdkit.Chem.rdchem.Mol object at 0x7fdd147ff1b0>, <rdkit.Chem.rdchem.Mol object at 0x7fdd146103c0>, <rdkit.Chem.rdchem.Mol object at 0x7fdd14610890>, <rdkit.Chem.rdchem.Mol object at 0x7fdd14610200>, <rdkit.Chem.rdchem.Mol object at 0x7fdd14610b30>, <rdkit.Chem.rdchem.Mol object at 0x7fdd14611070>, <rdkit.Chem.rdchem.Mol object at 0x7fdd146119a0>, <rdkit.Chem.rdchem.Mol object at 0x7fdd146129d0>, '.', <rdkit.Chem.rdchem.Mol object at 0x7fdd146128f0>, <rdkit.Chem.rdchem.Mol object at 0x7fdd146120a0>, <rdkit.Chem.rdchem.Mol object at 0x7fdd147ffed0>, <rdkit.Chem.rdchem.Mol object at 0x7fdd146126c0>, <rdkit.Chem.rdchem.Mol object at 0x7fdd14612180>]","[0, 0, 0, 6268, 6269, 6270, 6271, 6272, 6273, 6274, 6275, 1, 6276, 6277, 6278, 6279, 6280]"
PffQx-PS,ITIC,-5.4,-3.55,-5.574146341463415,-3.915,1.0,CF,DIO,90.0,PEDOT:PSS,PDINO,9.12,9.13,0.97,62.9,"[<rdkit.Chem.rdchem.Mol object at 0x7fdd147fd2a0>, <rdkit.Chem.rdchem.Mol object at 0x7fdd14610040>, <rdkit.Chem.rdchem.Mol object at 0x7fdd14612420>, <rdkit.Chem.rdchem.Mol object at 0x7fdd14611fc0>, <rdkit.Chem.rdchem.Mol object at 0x7fdd14611d20>, <rdkit.Chem.rdchem.Mol object at 0x7fdd14612260>, <rdkit.Chem.rdchem.Mol object at 0x7fdd14612500>, <rdkit.Chem.rdchem.Mol object at 0x7fdd14610e40>, <rdkit.Chem.rdchem.Mol object at 0x7fdd14611770>]","[<rdkit.Chem.rdchem.Mol object at 0x7fdd14610900>, <rdkit.Chem.rdchem.Mol object at 0x7fdd14611380>, <rdkit.Chem.rdchem.Mol object at 0x7fdd14611310>, <rdkit.Chem.rdchem.Mol object at 0x7fdd14611850>, <rdkit.Chem.rdchem.Mol object at 0x7fdd14611700>]","[<rdkit.Chem.rdchem.Mol object at 0x7fdd147fd2a0>, <rdkit.Chem.rdchem.Mol object at 0x7fdd14610040>, <rdkit.Chem.rdchem.Mol object at 0x7fdd14612420>, <rdkit.Chem.rdchem.Mol object at 0x7fdd14611fc0>, <rdkit.Chem.rdchem.Mol object at 0x7fdd14611d20>, <rdkit.Chem.rdchem.Mol object at 0x7fdd14612260>, <rdkit.Chem.rdchem.Mol object at 0x7fdd14612500>, <rdkit.Chem.rdchem.Mol object at 0x7fdd14610e40>, <rdkit.Chem.rdchem.Mol object at 0x7fdd14611770>, '.', <rdkit.Chem.rdchem.Mol object at 0x7fdd14610900>, <rdkit.Chem.rdchem.Mol object at 0x7fdd14611380>, <rdkit.Chem.rdchem.Mol object at 0x7fdd14611310>, <rdkit.Chem.rdchem.Mol object at 0x7fdd14611850>, <rdkit.Chem.rdchem.Mol object at 0x7fdd14611700>]","[0, 0, 6281, 6282, 6283, 6284, 6285, 6286, 6287, 6288, 6289, 1, 6290, 6291, 6292, 6293, 6294]"
PBDB-T,ITIC,-5.297714285714285,-3.4170000000000003,-5.574146341463415,-3.915,1.0,CB,_,160.0,MoOx,ZnO,8.6,8.57,0.831,71.1,"[<rdkit.Chem.rdchem.Mol object at 0x7fdd147ff990>, <rdkit.Chem.rdchem.Mol object at 0x7fdd146110e0>, <rdkit.Chem.rdchem.Mol object at 0x7fdd14610cf0>, <rdkit.Chem.rdchem.Mol object at 0x7fdd14612570>, <rdkit.Chem.rdchem.Mol object at 0x7fdd14610f20>]","[<rdkit.Chem.rdchem.Mol object at 0x7fdd14610c10>, <rdkit.Chem.rdchem.Mol object at 0x7fdd14611460>, <rdkit.Chem.rdchem.Mol object at 0x7fdd14612810>, <rdkit.Chem.rdchem.Mol object at 0x7fdd146121f0>, <rdkit.Chem.rdchem.Mol object at 0x7fdd14611230>]","[<rdkit.Chem.rdchem.Mol object at 0x7fdd147ff990>, <rdkit.Chem.rdchem.Mol object at 0x7fdd146110e0>, <rdkit.Chem.rdchem.Mol object at 0x7fdd14610cf0>, <rdkit.Chem.rdchem.Mol object at 0x7fdd14612570>, <rdkit.Chem.rdchem.Mol object at 0x7fdd14610f20>, '.', <rdkit.Chem.rdchem.Mol object at 0x7fdd14610c10>, <rdkit.Chem.rdchem.Mol object at 0x7fdd14611460>, <rdkit.Chem.rdchem.Mol object at 0x7fdd14612810>, <rdkit.Chem.rdchem.Mol object at 0x7fdd146121f0>, <rdkit.Chem.rdchem.Mol object at 0x7fdd14611230>]","[0, 0, 0, 0, 0, 0, 6295, 6296, 6297, 6298, 6299, 1, 6300, 6301, 6302, 6303, 6304]"
PBDB-T,ITIC,-5.297714285714285,-3.4170000000000003,-5.574146341463415,-3.915,1.0,CB,DIO,25.0,MoOx,ZnO,10.53,10.67,0.87,64.15,"[<rdkit.Chem.rdchem.Mol object at 0x7fdd147fcc80>, <rdkit.Chem.rdchem.Mol object at 0x7fdd14611af0>, <rdkit.Chem.rdchem.Mol object at 0x7fdd14610270>, <rdkit.Chem.rdchem.Mol object at 0x7fdd14611a80>, <rdkit.Chem.rdchem.Mol object at 0x7fdd14612960>]","[<rdkit.Chem.rdchem.Mol object at 0x7fdd14612ce0>, <rdkit.Chem.rdchem.Mol object at 0x7fdd14612880>, <rdkit.Chem.rdchem.Mol object at 0x7fdd14610350>, <rdkit.Chem.rdchem.Mol object at 0x7fdd146127a0>, <rdkit.Chem.rdchem.Mol object at 0x7fdd14610120>]","[<rdkit.Chem.rdchem.Mol object at 0x7fdd147fcc80>, <rdkit.Chem.rdchem.Mol object at 0x7fdd14611af0>, <rdkit.Chem.rdchem.Mol object at 0x7fdd14610270>, <rdkit.Chem.rdchem.Mol object at 0x7fdd14611a80>, <rdkit.Chem.rdchem.Mol object at 0x7fdd14612960>, '.', <rdkit.Chem.rdchem.Mol object at 0x7fdd14612ce0>, <rdkit.Chem.rdchem.Mol object at 0x7fdd14612880>, <rdkit.Chem.rdchem.Mol object at 0x7fdd14610350>, <rdkit.Chem.rdchem.Mol object at 0x7fdd146127a0>, <rdkit.Chem.rdchem.Mol object at 0x7fdd14610120>]","[0, 0, 0, 0, 0, 0, 6305, 6306, 6307, 6308, 6309, 1, 6310, 6311, 6312, 6313, 6314]"
J101,ITIC,-5.3,-3.5,-5.574146341463415,-3.915,1.0,CF,_,150.0,PEDOT:PSS,PDINO,12.47,12.4,0.951,73.65,"[<rdkit.Chem.rdchem.Mol object at 0x7fdd147ff8b0>, <rdkit.Chem.rdchem.Mol object at 0x7fdd14613680>, <rdkit.Chem.rdchem.Mol object at 0x7fdd14610dd0>, <rdkit.Chem.rdchem.Mol object at 0x7fdd14613920>, <rdkit.Chem.rdchem.Mol object at 0x7fdd14612d50>, <rdkit.Chem.rdchem.Mol object at 0x7fdd14612b90>]","[<rdkit.Chem.rdchem.Mol object at 0x7fdd146131b0>, <rdkit.Chem.rdchem.Mol object at 0x7fdd14612ab0>, <rdkit.Chem.rdchem.Mol object at 0x7fdd146136f0>, <rdkit.Chem.rdchem.Mol object at 0x7fdd14613ae0>, <rdkit.Chem.rdchem.Mol object at 0x7fdd146111c0>]","[<rdkit.Chem.rdchem.Mol object at 0x7fdd147ff8b0>, <rdkit.Chem.rdchem.Mol object at 0x7fdd14613680>, <rdkit.Chem.rdchem.Mol object at 0x7fdd14610dd0>, <rdkit.Chem.rdchem.Mol object at 0x7fdd14613920>, <rdkit.Chem.rdchem.Mol object at 0x7fdd14612d50>, <rdkit.Chem.rdchem.Mol object at 0x7fdd14612b90>, '.', <rdkit.Chem.rdchem.Mol object at 0x7fdd146131b0>, <rdkit.Chem.rdchem.Mol object at 0x7fdd14612ab0>, <rdkit.Chem.rdchem.Mol object at 0x7fdd146136f0>, <rdkit.Chem.rdchem.Mol object at 0x7fdd14613ae0>, <rdkit.Chem.rdchem.Mol object at 0x7fdd146111c0>]","[0, 0, 0, 0, 0, 6357, 6358, 6359, 6360, 6361, 6362, 1, 6363, 6364, 6365, 6366, 6367]"
J101,ZITI,-5.3,-3.5,-5.550000000000001,-3.78,1.0,CF,_,120.0,PEDOT:PSS,PDINO,14.43,14.43,0.937,72.48,"[<rdkit.Chem.rdchem.Mol object at 0x7fdd14613840>, <rdkit.Chem.rdchem.Mol object at 0x7fdd146137d0>, <rdkit.Chem.rdchem.Mol object at 0x7fdd14612c70>, <rdkit.Chem.rdchem.Mol object at 0x7fdd146125e0>, <rdkit.Chem.rdchem.Mol object at 0x7fdd14611ee0>, <rdkit.Chem.rdchem.Mol object at 0x7fdd14613530>]","[<rdkit.Chem.rdchem.Mol object at 0x7fdd14610d60>, <rdkit.Chem.rdchem.Mol object at 0x7fdd14612ff0>, <rdkit.Chem.rdchem.Mol object at 0x7fdd14613b50>, <rdkit.Chem.rdchem.Mol object at 0x7fdd14613370>]","[<rdkit.Chem.rdchem.Mol object at 0x7fdd14613840>, <rdkit.Chem.rdchem.Mol object at 0x7fdd146137d0>, <rdkit.Chem.rdchem.Mol object at 0x7fdd14612c70>, <rdkit.Chem.rdchem.Mol object at 0x7fdd146125e0>, <rdkit.Chem.rdchem.Mol object at 0x7fdd14611ee0>, <rdkit.Chem.rdchem.Mol object at 0x7fdd14613530>, '.', <rdkit.Chem.rdchem.Mol object at 0x7fdd14610d60>, <rdkit.Chem.rdchem.Mol object at 0x7fdd14612ff0>, <rdkit.Chem.rdchem.Mol object at 0x7fdd14613b50>, <rdkit.Chem.rdchem.Mol object at 0x7fdd14613370>]","[0, 0, 0, 0, 0, 0, 6368, 6369, 6370, 6371, 6372, 6373, 1, 6374, 6375, 6376, 6377]"
J71,ZITI,-5.353333333333333,-3.4318181818181825,-5.550000000000001,-3.78,1.0,CF,_,25.0,PEDOT:PSS,PDINO,12.82,12.82,0.912,69.49,"[<rdkit.Chem.rdchem.Mol object at 0x7fdd14613c30>, <rdkit.Chem.rdchem.Mol object at 0x7fdd14612110>, <rdkit.Chem.rdchem.Mol object at 0x7fdd14611a10>, <rdkit.Chem.rdchem.Mol object at 0x7fdd14613610>, <rdkit.Chem.rdchem.Mol object at 0x7fdd14613d80>, <rdkit.Chem.rdchem.Mol object at 0x7fdd146183c0>]","[<rdkit.Chem.rdchem.Mol object at 0x7fdd14613ca0>, <rdkit.Chem.rdchem.Mol object at 0x7fdd14613760>, <rdkit.Chem.rdchem.Mol object at 0x7fdd146130d0>, <rdkit.Chem.rdchem.Mol object at 0x7fdd14613290>]","[<rdkit.Chem.rdchem.Mol object at 0x7fdd14613c30>, <rdkit.Chem.rdchem.Mol object at 0x7fdd14612110>, <rdkit.Chem.rdchem.Mol object at 0x7fdd14611a10>, <rdkit.Chem.rdchem.Mol object at 0x7fdd14613610>, <rdkit.Chem.rdchem.Mol object at 0x7fdd14613d80>, <rdkit.Chem.rdchem.Mol object at 0x7fdd146183c0>, '.', <rdkit.Chem.rdchem.Mol object at 0x7fdd14613ca0>, <rdkit.Chem.rdchem.Mol object at 0x7fdd14613760>, <rdkit.Chem.rdchem.Mol object at 0x7fdd146130d0>, <rdkit.Chem.rdchem.Mol object at 0x7fdd14613290>]","[0, 0, 0, 0, 0, 0, 6378, 6379, 6380, 6381, 6382, 6383, 1, 6384, 6385, 6386, 6387]"
PTB7-Th,DICTF-C10,-5.204782608695651,-3.5391891891891896,-5.67,-3.89,0.667,o-DCB,_,25.0,MoOx,ZnO,6.93,8.33,0.865,50.0,"[<rdkit.Chem.rdchem.Mol object at 0x7fdd14613a70>, <rdkit.Chem.rdchem.Mol object at 0x7fdd14613bc0>, <rdkit.Chem.rdchem.Mol object at 0x7fdd146117e0>, <rdkit.Chem.rdchem.Mol object at 0x7fdd14613df0>, <rdkit.Chem.rdchem.Mol object at 0x7fdd14613ed0>, <rdkit.Chem.rdchem.Mol object at 0x7fdd14613d10>, <rdkit.Chem.rdchem.Mol object at 0x7fdd146184a0>]","[<rdkit.Chem.rdchem.Mol object at 0x7fdd14612e30>, <rdkit.Chem.rdchem.Mol object at 0x7fdd14618040>, <rdkit.Chem.rdchem.Mol object at 0x7fdd146133e0>, <rdkit.Chem.rdchem.Mol object at 0x7fdd146112a0>, <rdkit.Chem.rdchem.Mol object at 0x7fdd14618430>]","[<rdkit.Chem.rdchem.Mol object at 0x7fdd14613a70>, <rdkit.Chem.rdchem.Mol object at 0x7fdd14613bc0>, <rdkit.Chem.rdchem.Mol object at 0x7fdd146117e0>, <rdkit.Chem.rdchem.Mol object at 0x7fdd14613df0>, <rdkit.Chem.rdchem.Mol object at 0x7fdd14613ed0>, <rdkit.Chem.rdchem.Mol object at 0x7fdd14613d10>, <rdkit.Chem.rdchem.Mol object at 0x7fdd146184a0>, '.', <rdkit.Chem.rdchem.Mol object at 0x7fdd14612e30>, <rdkit.Chem.rdchem.Mol object at 0x7fdd14618040>, <rdkit.Chem.rdchem.Mol object at 0x7fdd146133e0>, <rdkit.Chem.rdchem.Mol object at 0x7fdd146112a0>, <rdkit.Chem.rdchem.Mol object at 0x7fdd14618430>]","[0, 0, 0, 0, 6388, 6389, 6390, 6391, 6392, 6393, 6394, 1, 6395, 6396, 6397, 6398, 6399]"