Donor,Acceptor,HOMO_D_eV,LUMO_D_eV,HOMO_A_eV,LUMO_A_eV,D_A_ratio_m_m,solvent,solvent_additive,annealing_temperature,hole_contact_layer,electron_contact_layer,PCE_percent,calc_PCE_percent,Voc_V,FF_percent,Donor_BRICS,Acceptor_BRICS,DA_pair_BRICS,DA_tokenized_BRICS
P3HT,N3,-5.057777777777777,-2.989444444444445,-5.76,-3.97,0.833,o-DCB,_,25.0,PEDOT:PSS,Ca,4.62,4.63,0.87,60.0,"[<rdkit.Chem.rdchem.Mol object at 0x7fdd1484de70>, <rdkit.Chem.rdchem.Mol object at 0x7fdd14859e70>, <rdkit.Chem.rdchem.Mol object at 0x7fdd14859a80>, <rdkit.Chem.rdchem.Mol object at 0x7fdd148591c0>]","[<rdkit.Chem.rdchem.Mol object at 0x7fdd14859f50>, <rdkit.Chem.rdchem.Mol object at 0x7fdd14859a10>, <rdkit.Chem.rdchem.Mol object at 0x7fdd14859cb0>, <rdkit.Chem.rdchem.Mol object at 0x7fdd14859fc0>, <rdkit.Chem.rdchem.Mol object at 0x7fdd14858ac0>, <rdkit.Chem.rdchem.Mol object at 0x7fdd14858ba0>]","[<rdkit.Chem.rdchem.Mol object at 0x7fdd1484de70>, <rdkit.Chem.rdchem.Mol object at 0x7fdd14859e70>, <rdkit.Chem.rdchem.Mol object at 0x7fdd14859a80>, <rdkit.Chem.rdchem.Mol object at 0x7fdd148591c0>, '.', <rdkit.Chem.rdchem.Mol object at 0x7fdd14859f50>, <rdkit.Chem.rdchem.Mol object at 0x7fdd14859a10>, <rdkit.Chem.rdchem.Mol object at 0x7fdd14859cb0>, <rdkit.Chem.rdchem.Mol object at 0x7fdd14859fc0>, <rdkit.Chem.rdchem.Mol object at 0x7fdd14858ac0>, <rdkit.Chem.rdchem.Mol object at 0x7fdd14858ba0>]","[0, 0, 0, 0, 0, 0, 1322, 1323, 1324, 1325, 1, 1326, 1327, 1328, 1329, 1330, 1331]"
P3HT,N4,-5.057777777777777,-2.989444444444445,-5.54,-3.67,0.833,o-DCB,_,25.0,PEDOT:PSS,Ca,3.52,3.53,0.91,58.0,"[<rdkit.Chem.rdchem.Mol object at 0x7fdd1484e5e0>, <rdkit.Chem.rdchem.Mol object at 0x7fdd14858040>, <rdkit.Chem.rdchem.Mol object at 0x7fdd1485a2d0>, <rdkit.Chem.rdchem.Mol object at 0x7fdd14859150>]","[<rdkit.Chem.rdchem.Mol object at 0x7fdd1485a490>, <rdkit.Chem.rdchem.Mol object at 0x7fdd1485a260>, <rdkit.Chem.rdchem.Mol object at 0x7fdd148594d0>, <rdkit.Chem.rdchem.Mol object at 0x7fdd148582e0>, <rdkit.Chem.rdchem.Mol object at 0x7fdd148598c0>]","[<rdkit.Chem.rdchem.Mol object at 0x7fdd1484e5e0>, <rdkit.Chem.rdchem.Mol object at 0x7fdd14858040>, <rdkit.Chem.rdchem.Mol object at 0x7fdd1485a2d0>, <rdkit.Chem.rdchem.Mol object at 0x7fdd14859150>, '.', <rdkit.Chem.rdchem.Mol object at 0x7fdd1485a490>, <rdkit.Chem.rdchem.Mol object at 0x7fdd1485a260>, <rdkit.Chem.rdchem.Mol object at 0x7fdd148594d0>, <rdkit.Chem.rdchem.Mol object at 0x7fdd148582e0>, <rdkit.Chem.rdchem.Mol object at 0x7fdd148598c0>]","[0, 0, 0, 0, 0, 0, 0, 1332, 1333, 1334, 1335, 1, 1336, 1337, 1338, 1339, 1340]"
P3HT,N5,-5.057777777777777,-2.989444444444445,-6.34,-3.73,0.833,o-DCB,_,25.0,PEDOT:PSS,Ca,4.03,4.02,0.97,59.0,"[<rdkit.Chem.rdchem.Mol object at 0x7fdd148597e0>, <rdkit.Chem.rdchem.Mol object at 0x7fdd14859ee0>, <rdkit.Chem.rdchem.Mol object at 0x7fdd1485a6c0>, <rdkit.Chem.rdchem.Mol object at 0x7fdd14859380>]","[<rdkit.Chem.rdchem.Mol object at 0x7fdd1485a3b0>, <rdkit.Chem.rdchem.Mol object at 0x7fdd1485a810>, <rdkit.Chem.rdchem.Mol object at 0x7fdd1485a650>, <rdkit.Chem.rdchem.Mol object at 0x7fdd1485a340>, <rdkit.Chem.rdchem.Mol object at 0x7fdd14859460>, <rdkit.Chem.rdchem.Mol object at 0x7fdd148599a0>, <rdkit.Chem.rdchem.Mol object at 0x7fdd14858f90>, <rdkit.Chem.rdchem.Mol object at 0x7fdd1485a030>, <rdkit.Chem.rdchem.Mol object at 0x7fdd148585f0>]","[<rdkit.Chem.rdchem.Mol object at 0x7fdd148597e0>, <rdkit.Chem.rdchem.Mol object at 0x7fdd14859ee0>, <rdkit.Chem.rdchem.Mol object at 0x7fdd1485a6c0>, <rdkit.Chem.rdchem.Mol object at 0x7fdd14859380>, '.', <rdkit.Chem.rdchem.Mol object at 0x7fdd1485a3b0>, <rdkit.Chem.rdchem.Mol object at 0x7fdd1485a810>, <rdkit.Chem.rdchem.Mol object at 0x7fdd1485a650>, <rdkit.Chem.rdchem.Mol object at 0x7fdd1485a340>, <rdkit.Chem.rdchem.Mol object at 0x7fdd14859460>, <rdkit.Chem.rdchem.Mol object at 0x7fdd148599a0>, <rdkit.Chem.rdchem.Mol object at 0x7fdd14858f90>, <rdkit.Chem.rdchem.Mol object at 0x7fdd1485a030>, <rdkit.Chem.rdchem.Mol object at 0x7fdd148585f0>]","[0, 0, 0, 1341, 1342, 1343, 1344, 1, 1345, 1346, 1347, 1348, 1349, 1350, 1351, 1352, 1353]"
P3HT,N6,-5.057777777777777,-2.989444444444445,-6.38,-3.98,0.833,o-DCB,_,25.0,PEDOT:PSS,Ca,6.11,6.11,0.9,63.0,"[<rdkit.Chem.rdchem.Mol object at 0x7fdd1485a180>, <rdkit.Chem.rdchem.Mol object at 0x7fdd1485a1f0>, <rdkit.Chem.rdchem.Mol object at 0x7fdd1485ac70>, <rdkit.Chem.rdchem.Mol object at 0x7fdd1485a5e0>]","[<rdkit.Chem.rdchem.Mol object at 0x7fdd1485ac00>, <rdkit.Chem.rdchem.Mol object at 0x7fdd1485aa40>, <rdkit.Chem.rdchem.Mol object at 0x7fdd1485a500>, <rdkit.Chem.rdchem.Mol object at 0x7fdd14858cf0>, <rdkit.Chem.rdchem.Mol object at 0x7fdd14859bd0>]","[<rdkit.Chem.rdchem.Mol object at 0x7fdd1485a180>, <rdkit.Chem.rdchem.Mol object at 0x7fdd1485a1f0>, <rdkit.Chem.rdchem.Mol object at 0x7fdd1485ac70>, <rdkit.Chem.rdchem.Mol object at 0x7fdd1485a5e0>, '.', <rdkit.Chem.rdchem.Mol object at 0x7fdd1485ac00>, <rdkit.Chem.rdchem.Mol object at 0x7fdd1485aa40>, <rdkit.Chem.rdchem.Mol object at 0x7fdd1485a500>, <rdkit.Chem.rdchem.Mol object at 0x7fdd14858cf0>, <rdkit.Chem.rdchem.Mol object at 0x7fdd14859bd0>]","[0, 0, 0, 0, 0, 0, 0, 1354, 1355, 1356, 1357, 1, 1358, 1359, 1360, 1361, 1362]"
PTB7-Th,DTPC-IC,-5.204782608695651,-3.5391891891891896,-5.21,-3.97,0.667,DCB,_,25.0,PEDOT:PSS,C60-bissalt,3.12,3.12,0.863,42.4,"[<rdkit.Chem.rdchem.Mol object at 0x7fdd1485a8f0>, <rdkit.Chem.rdchem.Mol object at 0x7fdd14859690>, <rdkit.Chem.rdchem.Mol object at 0x7fdd1485a0a0>, <rdkit.Chem.rdchem.Mol object at 0x7fdd14858b30>, <rdkit.Chem.rdchem.Mol object at 0x7fdd1485ab20>, <rdkit.Chem.rdchem.Mol object at 0x7fdd1485ae30>, <rdkit.Chem.rdchem.Mol object at 0x7fdd1485a730>]","[<rdkit.Chem.rdchem.Mol object at 0x7fdd14859310>, <rdkit.Chem.rdchem.Mol object at 0x7fdd14859d90>, <rdkit.Chem.rdchem.Mol object at 0x7fdd1485a880>, <rdkit.Chem.rdchem.Mol object at 0x7fdd1485ab90>, <rdkit.Chem.rdchem.Mol object at 0x7fdd14858820>, <rdkit.Chem.rdchem.Mol object at 0x7fdd1485ba70>]","[<rdkit.Chem.rdchem.Mol object at 0x7fdd1485a8f0>, <rdkit.Chem.rdchem.Mol object at 0x7fdd14859690>, <rdkit.Chem.rdchem.Mol object at 0x7fdd1485a0a0>, <rdkit.Chem.rdchem.Mol object at 0x7fdd14858b30>, <rdkit.Chem.rdchem.Mol object at 0x7fdd1485ab20>, <rdkit.Chem.rdchem.Mol object at 0x7fdd1485ae30>, <rdkit.Chem.rdchem.Mol object at 0x7fdd1485a730>, '.', <rdkit.Chem.rdchem.Mol object at 0x7fdd14859310>, <rdkit.Chem.rdchem.Mol object at 0x7fdd14859d90>, <rdkit.Chem.rdchem.Mol object at 0x7fdd1485a880>, <rdkit.Chem.rdchem.Mol object at 0x7fdd1485ab90>, <rdkit.Chem.rdchem.Mol object at 0x7fdd14858820>, <rdkit.Chem.rdchem.Mol object at 0x7fdd1485ba70>]","[0, 0, 0, 1363, 1364, 1365, 1366, 1367, 1368, 1369, 1, 1370, 1371, 1372, 1373, 1374, 1375]"
PTB7-Th,DTPC-DFIC,-5.204782608695651,-3.5391891891891896,-5.31,-4.1,0.667,DCB,DIO,25.0,PEDOT:PSS,C60-bissalt,10.21,10.21,0.76,61.3,"[<rdkit.Chem.rdchem.Mol object at 0x7fdd1485bc30>, <rdkit.Chem.rdchem.Mol object at 0x7fdd1485bbc0>, <rdkit.Chem.rdchem.Mol object at 0x7fdd1485bae0>, <rdkit.Chem.rdchem.Mol object at 0x7fdd1485af80>, <rdkit.Chem.rdchem.Mol object at 0x7fdd1485b6f0>, <rdkit.Chem.rdchem.Mol object at 0x7fdd1485b7d0>, <rdkit.Chem.rdchem.Mol object at 0x7fdd1485b1b0>]","[<rdkit.Chem.rdchem.Mol object at 0x7fdd1485b300>, <rdkit.Chem.rdchem.Mol object at 0x7fdd1485b530>, <rdkit.Chem.rdchem.Mol object at 0x7fdd1485b8b0>, <rdkit.Chem.rdchem.Mol object at 0x7fdd1485b4c0>, <rdkit.Chem.rdchem.Mol object at 0x7fdd1485b680>, <rdkit.Chem.rdchem.Mol object at 0x7fdd14864040>]","[<rdkit.Chem.rdchem.Mol object at 0x7fdd1485bc30>, <rdkit.Chem.rdchem.Mol object at 0x7fdd1485bbc0>, <rdkit.Chem.rdchem.Mol object at 0x7fdd1485bae0>, <rdkit.Chem.rdchem.Mol object at 0x7fdd1485af80>, <rdkit.Chem.rdchem.Mol object at 0x7fdd1485b6f0>, <rdkit.Chem.rdchem.Mol object at 0x7fdd1485b7d0>, <rdkit.Chem.rdchem.Mol object at 0x7fdd1485b1b0>, '.', <rdkit.Chem.rdchem.Mol object at 0x7fdd1485b300>, <rdkit.Chem.rdchem.Mol object at 0x7fdd1485b530>, <rdkit.Chem.rdchem.Mol object at 0x7fdd1485b8b0>, <rdkit.Chem.rdchem.Mol object at 0x7fdd1485b4c0>, <rdkit.Chem.rdchem.Mol object at 0x7fdd1485b680>, <rdkit.Chem.rdchem.Mol object at 0x7fdd14864040>]","[0, 0, 0, 1376, 1377, 1378, 1379, 1380, 1381, 1382, 1, 1383, 1384, 1385, 1386, 1387, 1388]"
PBDB-T,DICTF,-5.297714285714285,-3.4170000000000003,-5.67,-3.79,0.833,CB,DIO,25.0,PEDOT:PSS,PDIN,5.93,5.65,0.93,59.0,"[<rdkit.Chem.rdchem.Mol object at 0x7fdd14859850>, <rdkit.Chem.rdchem.Mol object at 0x7fdd1485aab0>, <rdkit.Chem.rdchem.Mol object at 0x7fdd1485a7a0>, <rdkit.Chem.rdchem.Mol object at 0x7fdd1485b220>, <rdkit.Chem.rdchem.Mol object at 0x7fdd14864270>]","[<rdkit.Chem.rdchem.Mol object at 0x7fdd1485b5a0>, <rdkit.Chem.rdchem.Mol object at 0x7fdd1485a960>, <rdkit.Chem.rdchem.Mol object at 0x7fdd1485b450>, <rdkit.Chem.rdchem.Mol object at 0x7fdd1485adc0>, <rdkit.Chem.rdchem.Mol object at 0x7fdd1485a420>]","[<rdkit.Chem.rdchem.Mol object at 0x7fdd14859850>, <rdkit.Chem.rdchem.Mol object at 0x7fdd1485aab0>, <rdkit.Chem.rdchem.Mol object at 0x7fdd1485a7a0>, <rdkit.Chem.rdchem.Mol object at 0x7fdd1485b220>, <rdkit.Chem.rdchem.Mol object at 0x7fdd14864270>, '.', <rdkit.Chem.rdchem.Mol object at 0x7fdd1485b5a0>, <rdkit.Chem.rdchem.Mol object at 0x7fdd1485a960>, <rdkit.Chem.rdchem.Mol object at 0x7fdd1485b450>, <rdkit.Chem.rdchem.Mol object at 0x7fdd1485adc0>, <rdkit.Chem.rdchem.Mol object at 0x7fdd1485a420>]","[0, 0, 0, 0, 0, 0, 1389, 1390, 1391, 1392, 1393, 1, 1394, 1395, 1396, 1397, 1398]"
PBDB-T,FDICTF,-5.297714285714285,-3.4170000000000003,-5.43,-3.71,0.833,CB,DIO,25.0,PEDOT:PSS,PDIN,10.06,9.81,0.94,66.0,"[<rdkit.Chem.rdchem.Mol object at 0x7fdd1485b140>, <rdkit.Chem.rdchem.Mol object at 0x7fdd14858580>, <rdkit.Chem.rdchem.Mol object at 0x7fdd1485a570>, <rdkit.Chem.rdchem.Mol object at 0x7fdd1485bd10>, <rdkit.Chem.rdchem.Mol object at 0x7fdd14864580>]","[<rdkit.Chem.rdchem.Mol object at 0x7fdd1485aff0>, <rdkit.Chem.rdchem.Mol object at 0x7fdd1485b990>, <rdkit.Chem.rdchem.Mol object at 0x7fdd1485b840>, <rdkit.Chem.rdchem.Mol object at 0x7fdd1485bf40>]","[<rdkit.Chem.rdchem.Mol object at 0x7fdd1485b140>, <rdkit.Chem.rdchem.Mol object at 0x7fdd14858580>, <rdkit.Chem.rdchem.Mol object at 0x7fdd1485a570>, <rdkit.Chem.rdchem.Mol object at 0x7fdd1485bd10>, <rdkit.Chem.rdchem.Mol object at 0x7fdd14864580>, '.', <rdkit.Chem.rdchem.Mol object at 0x7fdd1485aff0>, <rdkit.Chem.rdchem.Mol object at 0x7fdd1485b990>, <rdkit.Chem.rdchem.Mol object at 0x7fdd1485b840>, <rdkit.Chem.rdchem.Mol object at 0x7fdd1485bf40>]","[0, 0, 0, 0, 0, 0, 0, 1399, 1400, 1401, 1402, 1403, 1, 1404, 1405, 1406, 1407]"
P3HT,MPU1,-5.057777777777777,-2.989444444444445,-5.81,-3.99,1.0,CF,DIO,40.0,PEDOT:PSS,PFN,1.14,1.13,0.64,42.0,"[<rdkit.Chem.rdchem.Mol object at 0x7fdd14859770>, <rdkit.Chem.rdchem.Mol object at 0x7fdd1485ba00>, <rdkit.Chem.rdchem.Mol object at 0x7fdd14864430>, <rdkit.Chem.rdchem.Mol object at 0x7fdd1485a110>]","[<rdkit.Chem.rdchem.Mol object at 0x7fdd1485b290>, <rdkit.Chem.rdchem.Mol object at 0x7fdd1485b0d0>, <rdkit.Chem.rdchem.Mol object at 0x7fdd1485b060>, <rdkit.Chem.rdchem.Mol object at 0x7fdd1485b920>, <rdkit.Chem.rdchem.Mol object at 0x7fdd14864740>, <rdkit.Chem.rdchem.Mol object at 0x7fdd14858510>]","[<rdkit.Chem.rdchem.Mol object at 0x7fdd14859770>, <rdkit.Chem.rdchem.Mol object at 0x7fdd1485ba00>, <rdkit.Chem.rdchem.Mol object at 0x7fdd14864430>, <rdkit.Chem.rdchem.Mol object at 0x7fdd1485a110>, '.', <rdkit.Chem.rdchem.Mol object at 0x7fdd1485b290>, <rdkit.Chem.rdchem.Mol object at 0x7fdd1485b0d0>, <rdkit.Chem.rdchem.Mol object at 0x7fdd1485b060>, <rdkit.Chem.rdchem.Mol object at 0x7fdd1485b920>, <rdkit.Chem.rdchem.Mol object at 0x7fdd14864740>, <rdkit.Chem.rdchem.Mol object at 0x7fdd14858510>]","[0, 0, 0, 0, 0, 0, 1408, 1409, 1410, 1411, 1, 1412, 1413, 1414, 1415, 1416, 1417]"
P_dFBT-DTS,MPU1,-5.31,-3.33,-5.81,-3.99,1.0,CF,DIO,40.0,PEDOT:PSS,PFN,4.17,4.17,1.04,48.0,"[<rdkit.Chem.rdchem.Mol object at 0x7fdd14858190>, <rdkit.Chem.rdchem.Mol object at 0x7fdd1485aea0>, <rdkit.Chem.rdchem.Mol object at 0x7fdd14858dd0>, <rdkit.Chem.rdchem.Mol object at 0x7fdd1485bb50>, <rdkit.Chem.rdchem.Mol object at 0x7fdd1485af10>]","[<rdkit.Chem.rdchem.Mol object at 0x7fdd1485b610>, <rdkit.Chem.rdchem.Mol object at 0x7fdd1485bdf0>, <rdkit.Chem.rdchem.Mol object at 0x7fdd1485be60>, <rdkit.Chem.rdchem.Mol object at 0x7fdd1485bed0>, <rdkit.Chem.rdchem.Mol object at 0x7fdd14864190>, <rdkit.Chem.rdchem.Mol object at 0x7fdd148646d0>]","[<rdkit.Chem.rdchem.Mol object at 0x7fdd14858190>, <rdkit.Chem.rdchem.Mol object at 0x7fdd1485aea0>, <rdkit.Chem.rdchem.Mol object at 0x7fdd14858dd0>, <rdkit.Chem.rdchem.Mol object at 0x7fdd1485bb50>, <rdkit.Chem.rdchem.Mol object at 0x7fdd1485af10>, '.', <rdkit.Chem.rdchem.Mol object at 0x7fdd1485b610>, <rdkit.Chem.rdchem.Mol object at 0x7fdd1485bdf0>, <rdkit.Chem.rdchem.Mol object at 0x7fdd1485be60>, <rdkit.Chem.rdchem.Mol object at 0x7fdd1485bed0>, <rdkit.Chem.rdchem.Mol object at 0x7fdd14864190>, <rdkit.Chem.rdchem.Mol object at 0x7fdd148646d0>]","[0, 0, 0, 0, 0, 1418, 1419, 1420, 1421, 1422, 1, 1423, 1424, 1425, 1426, 1427, 1428]"
PBDB-T,IDT-BC6,-5.297714285714285,-3.4170000000000003,-5.55,-3.83,1.0,o-DCB,_,25.0,MoOx,ZnO,2.3,2.28,0.92,44.0,"[<rdkit.Chem.rdchem.Mol object at 0x7fdd1485bd80>, <rdkit.Chem.rdchem.Mol object at 0x7fdd14864ba0>, <rdkit.Chem.rdchem.Mol object at 0x7fdd14864200>, <rdkit.Chem.rdchem.Mol object at 0x7fdd14864b30>, <rdkit.Chem.rdchem.Mol object at 0x7fdd14865700>]","[<rdkit.Chem.rdchem.Mol object at 0x7fdd14859c40>, <rdkit.Chem.rdchem.Mol object at 0x7fdd14865230>, <rdkit.Chem.rdchem.Mol object at 0x7fdd14858e40>, <rdkit.Chem.rdchem.Mol object at 0x7fdd14864cf0>, <rdkit.Chem.rdchem.Mol object at 0x7fdd14884cf0>, <rdkit.Chem.rdchem.Mol object at 0x7fdd14884b30>]","[<rdkit.Chem.rdchem.Mol object at 0x7fdd1485bd80>, <rdkit.Chem.rdchem.Mol object at 0x7fdd14864ba0>, <rdkit.Chem.rdchem.Mol object at 0x7fdd14864200>, <rdkit.Chem.rdchem.Mol object at 0x7fdd14864b30>, <rdkit.Chem.rdchem.Mol object at 0x7fdd14865700>, '.', <rdkit.Chem.rdchem.Mol object at 0x7fdd14859c40>, <rdkit.Chem.rdchem.Mol object at 0x7fdd14865230>, <rdkit.Chem.rdchem.Mol object at 0x7fdd14858e40>, <rdkit.Chem.rdchem.Mol object at 0x7fdd14864cf0>, <rdkit.Chem.rdchem.Mol object at 0x7fdd14884cf0>, <rdkit.Chem.rdchem.Mol object at 0x7fdd14884b30>]","[0, 0, 0, 0, 0, 1429, 1430, 1431, 1432, 1433, 1, 1434, 1435, 1436, 1437, 1438, 1439]"
PBDB-T,IDT-BOC6,-5.297714285714285,-3.4170000000000003,-5.51,-3.78,1.0,o-DCB,DIO,25.0,MoOx,ZnO,9.6,9.56,1.01,54.0,"[<rdkit.Chem.rdchem.Mol object at 0x7fdd14864900>, <rdkit.Chem.rdchem.Mol object at 0x7fdd148676f0>, <rdkit.Chem.rdchem.Mol object at 0x7fdd14867920>, <rdkit.Chem.rdchem.Mol object at 0x7fdd14867680>, <rdkit.Chem.rdchem.Mol object at 0x7fdd14866c70>]","[<rdkit.Chem.rdchem.Mol object at 0x7fdd148671b0>, <rdkit.Chem.rdchem.Mol object at 0x7fdd14866e30>, <rdkit.Chem.rdchem.Mol object at 0x7fdd14866960>, <rdkit.Chem.rdchem.Mol object at 0x7fdd14867ca0>, <rdkit.Chem.rdchem.Mol object at 0x7fdd148665e0>, <rdkit.Chem.rdchem.Mol object at 0x7fdd14865d90>, <rdkit.Chem.rdchem.Mol object at 0x7fdd14865a80>, <rdkit.Chem.rdchem.Mol object at 0x7fdd14865e00>]","[<rdkit.Chem.rdchem.Mol object at 0x7fdd14864900>, <rdkit.Chem.rdchem.Mol object at 0x7fdd148676f0>, <rdkit.Chem.rdchem.Mol object at 0x7fdd14867920>, <rdkit.Chem.rdchem.Mol object at 0x7fdd14867680>, <rdkit.Chem.rdchem.Mol object at 0x7fdd14866c70>, '.', <rdkit.Chem.rdchem.Mol object at 0x7fdd148671b0>, <rdkit.Chem.rdchem.Mol object at 0x7fdd14866e30>, <rdkit.Chem.rdchem.Mol object at 0x7fdd14866960>, <rdkit.Chem.rdchem.Mol object at 0x7fdd14867ca0>, <rdkit.Chem.rdchem.Mol object at 0x7fdd148665e0>, <rdkit.Chem.rdchem.Mol object at 0x7fdd14865d90>, <rdkit.Chem.rdchem.Mol object at 0x7fdd14865a80>, <rdkit.Chem.rdchem.Mol object at 0x7fdd14865e00>]","[0, 0, 0, 1440, 1441, 1442, 1443, 1444, 1, 1445, 1446, 1447, 1448, 1449, 1450, 1451, 1452]"
PTB7-Th,ITIC3,-5.204782608695651,-3.5391891891891896,-5.54,-3.9,0.667,CF,_,25.0,MoOx,ZnO,8.09,8.09,0.763,63.1,"[<rdkit.Chem.rdchem.Mol object at 0x7fdd14865d20>, <rdkit.Chem.rdchem.Mol object at 0x7fdd14865f50>, <rdkit.Chem.rdchem.Mol object at 0x7fdd14866180>, <rdkit.Chem.rdchem.Mol object at 0x7fdd14865e70>, <rdkit.Chem.rdchem.Mol object at 0x7fdd14866570>, <rdkit.Chem.rdchem.Mol object at 0x7fdd148661f0>, <rdkit.Chem.rdchem.Mol object at 0x7fdd14866ce0>]","[<rdkit.Chem.rdchem.Mol object at 0x7fdd14866340>, <rdkit.Chem.rdchem.Mol object at 0x7fdd148657e0>, <rdkit.Chem.rdchem.Mol object at 0x7fdd14866490>, <rdkit.Chem.rdchem.Mol object at 0x7fdd14865ee0>, <rdkit.Chem.rdchem.Mol object at 0x7fdd148660a0>]","[<rdkit.Chem.rdchem.Mol object at 0x7fdd14865d20>, <rdkit.Chem.rdchem.Mol object at 0x7fdd14865f50>, <rdkit.Chem.rdchem.Mol object at 0x7fdd14866180>, <rdkit.Chem.rdchem.Mol object at 0x7fdd14865e70>, <rdkit.Chem.rdchem.Mol object at 0x7fdd14866570>, <rdkit.Chem.rdchem.Mol object at 0x7fdd148661f0>, <rdkit.Chem.rdchem.Mol object at 0x7fdd14866ce0>, '.', <rdkit.Chem.rdchem.Mol object at 0x7fdd14866340>, <rdkit.Chem.rdchem.Mol object at 0x7fdd148657e0>, <rdkit.Chem.rdchem.Mol object at 0x7fdd14866490>, <rdkit.Chem.rdchem.Mol object at 0x7fdd14865ee0>, <rdkit.Chem.rdchem.Mol object at 0x7fdd148660a0>]","[0, 0, 0, 0, 1453, 1454, 1455, 1456, 1457, 1458, 1459, 1, 1460, 1461, 1462, 1463, 1464]"
PTB7-Th,FOIC,-5.204782608695651,-3.5391891891891896,-5.36,-3.92,0.667,CF,_,25.0,MoOx,ZnO,12.0,11.97,0.743,67.1,"[<rdkit.Chem.rdchem.Mol object at 0x7fdd14867f40>, <rdkit.Chem.rdchem.Mol object at 0x7fdd14866ab0>, <rdkit.Chem.rdchem.Mol object at 0x7fdd14867d80>, <rdkit.Chem.rdchem.Mol object at 0x7fdd14867b50>, <rdkit.Chem.rdchem.Mol object at 0x7fdd14865460>, <rdkit.Chem.rdchem.Mol object at 0x7fdd14867bc0>, <rdkit.Chem.rdchem.Mol object at 0x7fdd14866a40>]","[<rdkit.Chem.rdchem.Mol object at 0x7fdd14864f90>, <rdkit.Chem.rdchem.Mol object at 0x7fdd14867ed0>, <rdkit.Chem.rdchem.Mol object at 0x7fdd14864a50>, <rdkit.Chem.rdchem.Mol object at 0x7fdd14866030>, <rdkit.Chem.rdchem.Mol object at 0x7fdd14867370>]","[<rdkit.Chem.rdchem.Mol object at 0x7fdd14867f40>, <rdkit.Chem.rdchem.Mol object at 0x7fdd14866ab0>, <rdkit.Chem.rdchem.Mol object at 0x7fdd14867d80>, <rdkit.Chem.rdchem.Mol object at 0x7fdd14867b50>, <rdkit.Chem.rdchem.Mol object at 0x7fdd14865460>, <rdkit.Chem.rdchem.Mol object at 0x7fdd14867bc0>, <rdkit.Chem.rdchem.Mol object at 0x7fdd14866a40>, '.', <rdkit.Chem.rdchem.Mol object at 0x7fdd14864f90>, <rdkit.Chem.rdchem.Mol object at 0x7fdd14867ed0>, <rdkit.Chem.rdchem.Mol object at 0x7fdd14864a50>, <rdkit.Chem.rdchem.Mol object at 0x7fdd14866030>, <rdkit.Chem.rdchem.Mol object at 0x7fdd14867370>]","[0, 0, 0, 0, 1465, 1466, 1467, 1468, 1469, 1470, 1471, 1, 1472, 1473, 1474, 1475, 1476]"