Donor,Acceptor,HOMO_D_eV,LUMO_D_eV,HOMO_A_eV,LUMO_A_eV,D_A_ratio_m_m,solvent,solvent_additive,annealing_temperature,hole_contact_layer,electron_contact_layer,PCE_percent,calc_PCE_percent,Voc_V,FF_percent,Donor_BRICS,Acceptor_BRICS,DA_pair_BRICS,DA_tokenized_BRICS
PTZPF,BT-2F,-5.41,-3.42,-5.6,-4.0,1.0,CB,CN,120.0,PEDOT:PSS,PFN-Br,8.54,8.59,0.84,53.0,"[<rdkit.Chem.rdchem.Mol object at 0x7fdd1475e490>, <rdkit.Chem.rdchem.Mol object at 0x7fdd1475ef80>, <rdkit.Chem.rdchem.Mol object at 0x7fdd1476ccf0>, <rdkit.Chem.rdchem.Mol object at 0x7fdd1476d690>, <rdkit.Chem.rdchem.Mol object at 0x7fdd1476cf90>, <rdkit.Chem.rdchem.Mol object at 0x7fdd1476cdd0>, <rdkit.Chem.rdchem.Mol object at 0x7fdd1476d770>]","[<rdkit.Chem.rdchem.Mol object at 0x7fdd1475fb50>, <rdkit.Chem.rdchem.Mol object at 0x7fdd1476d5b0>, <rdkit.Chem.rdchem.Mol object at 0x7fdd1476c120>, <rdkit.Chem.rdchem.Mol object at 0x7fdd1476d380>, <rdkit.Chem.rdchem.Mol object at 0x7fdd1476c2e0>, <rdkit.Chem.rdchem.Mol object at 0x7fdd1476dcb0>, <rdkit.Chem.rdchem.Mol object at 0x7fdd1476c3c0>]","[<rdkit.Chem.rdchem.Mol object at 0x7fdd1475e490>, <rdkit.Chem.rdchem.Mol object at 0x7fdd1475ef80>, <rdkit.Chem.rdchem.Mol object at 0x7fdd1476ccf0>, <rdkit.Chem.rdchem.Mol object at 0x7fdd1476d690>, <rdkit.Chem.rdchem.Mol object at 0x7fdd1476cf90>, <rdkit.Chem.rdchem.Mol object at 0x7fdd1476cdd0>, <rdkit.Chem.rdchem.Mol object at 0x7fdd1476d770>, '.', <rdkit.Chem.rdchem.Mol object at 0x7fdd1475fb50>, <rdkit.Chem.rdchem.Mol object at 0x7fdd1476d5b0>, <rdkit.Chem.rdchem.Mol object at 0x7fdd1476c120>, <rdkit.Chem.rdchem.Mol object at 0x7fdd1476d380>, <rdkit.Chem.rdchem.Mol object at 0x7fdd1476c2e0>, <rdkit.Chem.rdchem.Mol object at 0x7fdd1476dcb0>, <rdkit.Chem.rdchem.Mol object at 0x7fdd1476c3c0>]","[0, 0, 4357, 4358, 4359, 4360, 4361, 4362, 4363, 1, 4364, 4365, 4366, 4367, 4368, 4369, 4370]"
P3HT,BT3,-5.057777777777777,-2.989444444444445,-5.53,-3.79,3.333,CF,_,120.0,PEDOT:PSS,Ca,2.55,2.55,0.72,61.0,"[<rdkit.Chem.rdchem.Mol object at 0x7fdd1475cf20>, <rdkit.Chem.rdchem.Mol object at 0x7fdd1476da80>, <rdkit.Chem.rdchem.Mol object at 0x7fdd1476c040>, <rdkit.Chem.rdchem.Mol object at 0x7fdd1476c7b0>]","[<rdkit.Chem.rdchem.Mol object at 0x7fdd1476c900>, <rdkit.Chem.rdchem.Mol object at 0x7fdd1476cac0>, <rdkit.Chem.rdchem.Mol object at 0x7fdd1476ceb0>, <rdkit.Chem.rdchem.Mol object at 0x7fdd1476c200>]","[<rdkit.Chem.rdchem.Mol object at 0x7fdd1475cf20>, <rdkit.Chem.rdchem.Mol object at 0x7fdd1476da80>, <rdkit.Chem.rdchem.Mol object at 0x7fdd1476c040>, <rdkit.Chem.rdchem.Mol object at 0x7fdd1476c7b0>, '.', <rdkit.Chem.rdchem.Mol object at 0x7fdd1476c900>, <rdkit.Chem.rdchem.Mol object at 0x7fdd1476cac0>, <rdkit.Chem.rdchem.Mol object at 0x7fdd1476ceb0>, <rdkit.Chem.rdchem.Mol object at 0x7fdd1476c200>]","[0, 0, 0, 0, 0, 0, 0, 0, 4371, 4372, 4373, 4374, 1, 4375, 4376, 4377, 4378]"
P3HT,BTA3,-5.057777777777777,-2.989444444444445,-5.415,-3.445,2.0,CF,_,130.0,PEDOT:PSS,Ca,5.64,5.64,0.9,65.0,"[<rdkit.Chem.rdchem.Mol object at 0x7fdd1476de70>, <rdkit.Chem.rdchem.Mol object at 0x7fdd1476cb30>, <rdkit.Chem.rdchem.Mol object at 0x7fdd1476e030>, <rdkit.Chem.rdchem.Mol object at 0x7fdd1476c430>]","[<rdkit.Chem.rdchem.Mol object at 0x7fdd1476dc40>, <rdkit.Chem.rdchem.Mol object at 0x7fdd1476dee0>, <rdkit.Chem.rdchem.Mol object at 0x7fdd1476daf0>, <rdkit.Chem.rdchem.Mol object at 0x7fdd1476f4c0>, <rdkit.Chem.rdchem.Mol object at 0x7fdd1476f6f0>]","[<rdkit.Chem.rdchem.Mol object at 0x7fdd1476de70>, <rdkit.Chem.rdchem.Mol object at 0x7fdd1476cb30>, <rdkit.Chem.rdchem.Mol object at 0x7fdd1476e030>, <rdkit.Chem.rdchem.Mol object at 0x7fdd1476c430>, '.', <rdkit.Chem.rdchem.Mol object at 0x7fdd1476dc40>, <rdkit.Chem.rdchem.Mol object at 0x7fdd1476dee0>, <rdkit.Chem.rdchem.Mol object at 0x7fdd1476daf0>, <rdkit.Chem.rdchem.Mol object at 0x7fdd1476f4c0>, <rdkit.Chem.rdchem.Mol object at 0x7fdd1476f6f0>]","[0, 0, 0, 0, 0, 0, 0, 4379, 4380, 4381, 4382, 1, 4383, 4384, 4385, 4386, 4387]"
P3HT,Qx1,-5.057777777777777,-2.989444444444445,-5.42,-3.6,1.667,o-DCB,CN,100.0,PEDOT:PSS,Ca,4.03,4.03,1.0,67.0,"[<rdkit.Chem.rdchem.Mol object at 0x7fdd1476f8b0>, <rdkit.Chem.rdchem.Mol object at 0x7fdd1476f530>, <rdkit.Chem.rdchem.Mol object at 0x7fdd1476e960>, <rdkit.Chem.rdchem.Mol object at 0x7fdd1476edc0>]","[<rdkit.Chem.rdchem.Mol object at 0x7fdd1476ec00>, <rdkit.Chem.rdchem.Mol object at 0x7fdd1476f220>, <rdkit.Chem.rdchem.Mol object at 0x7fdd1476e8f0>, <rdkit.Chem.rdchem.Mol object at 0x7fdd1476e6c0>]","[<rdkit.Chem.rdchem.Mol object at 0x7fdd1476f8b0>, <rdkit.Chem.rdchem.Mol object at 0x7fdd1476f530>, <rdkit.Chem.rdchem.Mol object at 0x7fdd1476e960>, <rdkit.Chem.rdchem.Mol object at 0x7fdd1476edc0>, '.', <rdkit.Chem.rdchem.Mol object at 0x7fdd1476ec00>, <rdkit.Chem.rdchem.Mol object at 0x7fdd1476f220>, <rdkit.Chem.rdchem.Mol object at 0x7fdd1476e8f0>, <rdkit.Chem.rdchem.Mol object at 0x7fdd1476e6c0>]","[0, 0, 0, 0, 0, 0, 0, 0, 4388, 4389, 4390, 4391, 1, 4392, 4393, 4394, 4395]"
P3HT,Qx1b,-5.057777777777777,-2.989444444444445,-5.35,-3.66,0.8,o-DCB,CN,150.0,PEDOT:PSS,Ca,4.81,4.81,0.95,69.0,"[<rdkit.Chem.rdchem.Mol object at 0x7fdd1476f1b0>, <rdkit.Chem.rdchem.Mol object at 0x7fdd1476f680>, <rdkit.Chem.rdchem.Mol object at 0x7fdd1476e500>, <rdkit.Chem.rdchem.Mol object at 0x7fdd1476ec70>]","[<rdkit.Chem.rdchem.Mol object at 0x7fdd1476e730>, <rdkit.Chem.rdchem.Mol object at 0x7fdd1476d8c0>, <rdkit.Chem.rdchem.Mol object at 0x7fdd1476f5a0>]","[<rdkit.Chem.rdchem.Mol object at 0x7fdd1476f1b0>, <rdkit.Chem.rdchem.Mol object at 0x7fdd1476f680>, <rdkit.Chem.rdchem.Mol object at 0x7fdd1476e500>, <rdkit.Chem.rdchem.Mol object at 0x7fdd1476ec70>, '.', <rdkit.Chem.rdchem.Mol object at 0x7fdd1476e730>, <rdkit.Chem.rdchem.Mol object at 0x7fdd1476d8c0>, <rdkit.Chem.rdchem.Mol object at 0x7fdd1476f5a0>]","[0, 0, 0, 0, 0, 0, 0, 0, 0, 4396, 4397, 4398, 4399, 1, 4400, 4401, 4402]"
P3HT,BTA21,-5.057777777777777,-2.989444444444445,-5.76,-3.56,1.0,CF,_,100.0,PEDOT:PSS,Ca,2.46,2.46,1.07,43.0,"[<rdkit.Chem.rdchem.Mol object at 0x7fdd1476ece0>, <rdkit.Chem.rdchem.Mol object at 0x7fdd1476c0b0>, <rdkit.Chem.rdchem.Mol object at 0x7fdd1476f290>, <rdkit.Chem.rdchem.Mol object at 0x7fdd1476c270>]","[<rdkit.Chem.rdchem.Mol object at 0x7fdd1476df50>, <rdkit.Chem.rdchem.Mol object at 0x7fdd1476c660>, <rdkit.Chem.rdchem.Mol object at 0x7fdd1476eb20>, <rdkit.Chem.rdchem.Mol object at 0x7fdd1476e340>, <rdkit.Chem.rdchem.Mol object at 0x7fdd1476e110>, <rdkit.Chem.rdchem.Mol object at 0x7fdd1476e810>]","[<rdkit.Chem.rdchem.Mol object at 0x7fdd1476ece0>, <rdkit.Chem.rdchem.Mol object at 0x7fdd1476c0b0>, <rdkit.Chem.rdchem.Mol object at 0x7fdd1476f290>, <rdkit.Chem.rdchem.Mol object at 0x7fdd1476c270>, '.', <rdkit.Chem.rdchem.Mol object at 0x7fdd1476df50>, <rdkit.Chem.rdchem.Mol object at 0x7fdd1476c660>, <rdkit.Chem.rdchem.Mol object at 0x7fdd1476eb20>, <rdkit.Chem.rdchem.Mol object at 0x7fdd1476e340>, <rdkit.Chem.rdchem.Mol object at 0x7fdd1476e110>, <rdkit.Chem.rdchem.Mol object at 0x7fdd1476e810>]","[0, 0, 0, 0, 0, 0, 4414, 4415, 4416, 4417, 1, 4418, 4419, 4420, 4421, 4422, 4423]"
P3HT,BTA23,-5.057777777777777,-2.989444444444445,-5.7,-3.57,1.0,CF,_,120.0,PEDOT:PSS,Ca,1.86,1.86,0.9,52.0,"[<rdkit.Chem.rdchem.Mol object at 0x7fdd1476e570>, <rdkit.Chem.rdchem.Mol object at 0x7fdd1476e490>, <rdkit.Chem.rdchem.Mol object at 0x7fdd1476ce40>, <rdkit.Chem.rdchem.Mol object at 0x7fdd1476c4a0>]","[<rdkit.Chem.rdchem.Mol object at 0x7fdd1476c6d0>, <rdkit.Chem.rdchem.Mol object at 0x7fdd1476c9e0>, <rdkit.Chem.rdchem.Mol object at 0x7fdd1476e260>, <rdkit.Chem.rdchem.Mol object at 0x7fdd1476d930>]","[<rdkit.Chem.rdchem.Mol object at 0x7fdd1476e570>, <rdkit.Chem.rdchem.Mol object at 0x7fdd1476e490>, <rdkit.Chem.rdchem.Mol object at 0x7fdd1476ce40>, <rdkit.Chem.rdchem.Mol object at 0x7fdd1476c4a0>, '.', <rdkit.Chem.rdchem.Mol object at 0x7fdd1476c6d0>, <rdkit.Chem.rdchem.Mol object at 0x7fdd1476c9e0>, <rdkit.Chem.rdchem.Mol object at 0x7fdd1476e260>, <rdkit.Chem.rdchem.Mol object at 0x7fdd1476d930>]","[0, 0, 0, 0, 0, 0, 0, 0, 4424, 4425, 4426, 4427, 1, 4428, 4429, 4430, 4431]"
P3HT,BTA27,-5.057777777777777,-2.989444444444445,-6.08,-3.81,1.0,CF,_,100.0,PEDOT:PSS,Ca,0.62,0.62,0.6,36.0,"[<rdkit.Chem.rdchem.Mol object at 0x7fdd1476c190>, <rdkit.Chem.rdchem.Mol object at 0x7fdd1476f0d0>, <rdkit.Chem.rdchem.Mol object at 0x7fdd1476f760>, <rdkit.Chem.rdchem.Mol object at 0x7fdd1476e5e0>]","[<rdkit.Chem.rdchem.Mol object at 0x7fdd1476fae0>, <rdkit.Chem.rdchem.Mol object at 0x7fdd1476f610>, <rdkit.Chem.rdchem.Mol object at 0x7fdd1476e420>, <rdkit.Chem.rdchem.Mol object at 0x7fdd1476f450>, <rdkit.Chem.rdchem.Mol object at 0x7fdd1476e180>]","[<rdkit.Chem.rdchem.Mol object at 0x7fdd1476c190>, <rdkit.Chem.rdchem.Mol object at 0x7fdd1476f0d0>, <rdkit.Chem.rdchem.Mol object at 0x7fdd1476f760>, <rdkit.Chem.rdchem.Mol object at 0x7fdd1476e5e0>, '.', <rdkit.Chem.rdchem.Mol object at 0x7fdd1476fae0>, <rdkit.Chem.rdchem.Mol object at 0x7fdd1476f610>, <rdkit.Chem.rdchem.Mol object at 0x7fdd1476e420>, <rdkit.Chem.rdchem.Mol object at 0x7fdd1476f450>, <rdkit.Chem.rdchem.Mol object at 0x7fdd1476e180>]","[0, 0, 0, 0, 0, 0, 0, 4432, 4433, 4434, 4435, 1, 4436, 4437, 4438, 4439, 4440]"
PBDTTz-BP,ITIC,-5.025,-2.97,-5.574146341463415,-3.915,1.0,CB,_,25.0,PEDOT:PSS,Ca,8.03,8.03,0.81,56.0,"[<rdkit.Chem.rdchem.Mol object at 0x7fdd1476cba0>, <rdkit.Chem.rdchem.Mol object at 0x7fdd1476ef10>, <rdkit.Chem.rdchem.Mol object at 0x7fdd1476f7d0>, <rdkit.Chem.rdchem.Mol object at 0x7fdd1476d850>, <rdkit.Chem.rdchem.Mol object at 0x7fdd1476e1f0>, <rdkit.Chem.rdchem.Mol object at 0x7fdd1476dbd0>, <rdkit.Chem.rdchem.Mol object at 0x7fdd1476fd80>, <rdkit.Chem.rdchem.Mol object at 0x7fdd1476fbc0>]","[<rdkit.Chem.rdchem.Mol object at 0x7fdd1476fc30>, <rdkit.Chem.rdchem.Mol object at 0x7fdd1476e880>, <rdkit.Chem.rdchem.Mol object at 0x7fdd1476cc80>, <rdkit.Chem.rdchem.Mol object at 0x7fdd1476fa00>, <rdkit.Chem.rdchem.Mol object at 0x7fdd1476da10>]","[<rdkit.Chem.rdchem.Mol object at 0x7fdd1476cba0>, <rdkit.Chem.rdchem.Mol object at 0x7fdd1476ef10>, <rdkit.Chem.rdchem.Mol object at 0x7fdd1476f7d0>, <rdkit.Chem.rdchem.Mol object at 0x7fdd1476d850>, <rdkit.Chem.rdchem.Mol object at 0x7fdd1476e1f0>, <rdkit.Chem.rdchem.Mol object at 0x7fdd1476dbd0>, <rdkit.Chem.rdchem.Mol object at 0x7fdd1476fd80>, <rdkit.Chem.rdchem.Mol object at 0x7fdd1476fbc0>, '.', <rdkit.Chem.rdchem.Mol object at 0x7fdd1476fc30>, <rdkit.Chem.rdchem.Mol object at 0x7fdd1476e880>, <rdkit.Chem.rdchem.Mol object at 0x7fdd1476cc80>, <rdkit.Chem.rdchem.Mol object at 0x7fdd1476fa00>, <rdkit.Chem.rdchem.Mol object at 0x7fdd1476da10>]","[0, 0, 0, 4441, 4442, 4443, 4444, 4445, 4446, 4447, 4448, 1, 4449, 4450, 4451, 4452, 4453]"
PBDTTz-N,ITIC,-5.23,-3.52,-5.574146341463415,-3.915,1.0,CB,_,25.0,PEDOT:PSS,Ca,6.61,6.62,0.75,49.0,"[<rdkit.Chem.rdchem.Mol object at 0x7fdd1476e650>, <rdkit.Chem.rdchem.Mol object at 0x7fdd1476cc10>, <rdkit.Chem.rdchem.Mol object at 0x7fdd1476e0a0>, <rdkit.Chem.rdchem.Mol object at 0x7fdd1476ff40>, <rdkit.Chem.rdchem.Mol object at 0x7fdd1476c580>, <rdkit.Chem.rdchem.Mol object at 0x7fdd1476fe60>, <rdkit.Chem.rdchem.Mol object at 0x7fdd1476fd10>, <rdkit.Chem.rdchem.Mol object at 0x7fdd147744a0>]","[<rdkit.Chem.rdchem.Mol object at 0x7fdd1476f300>, <rdkit.Chem.rdchem.Mol object at 0x7fdd1476c350>, <rdkit.Chem.rdchem.Mol object at 0x7fdd1476dd90>, <rdkit.Chem.rdchem.Mol object at 0x7fdd1476ed50>, <rdkit.Chem.rdchem.Mol object at 0x7fdd14774890>]","[<rdkit.Chem.rdchem.Mol object at 0x7fdd1476e650>, <rdkit.Chem.rdchem.Mol object at 0x7fdd1476cc10>, <rdkit.Chem.rdchem.Mol object at 0x7fdd1476e0a0>, <rdkit.Chem.rdchem.Mol object at 0x7fdd1476ff40>, <rdkit.Chem.rdchem.Mol object at 0x7fdd1476c580>, <rdkit.Chem.rdchem.Mol object at 0x7fdd1476fe60>, <rdkit.Chem.rdchem.Mol object at 0x7fdd1476fd10>, <rdkit.Chem.rdchem.Mol object at 0x7fdd147744a0>, '.', <rdkit.Chem.rdchem.Mol object at 0x7fdd1476f300>, <rdkit.Chem.rdchem.Mol object at 0x7fdd1476c350>, <rdkit.Chem.rdchem.Mol object at 0x7fdd1476dd90>, <rdkit.Chem.rdchem.Mol object at 0x7fdd1476ed50>, <rdkit.Chem.rdchem.Mol object at 0x7fdd14774890>]","[0, 0, 0, 4454, 4455, 4456, 4457, 4458, 4459, 4460, 4461, 1, 4462, 4463, 4464, 4465, 4466]"
PBDB-T,F-H,-5.297714285714285,-3.4170000000000003,-5.42,-3.79,0.833,CB,_,25.0,PEDOT:PSS,PDINO,9.59,9.46,0.94,67.0,"[<rdkit.Chem.rdchem.Mol object at 0x7fdd1476c970>, <rdkit.Chem.rdchem.Mol object at 0x7fdd147749e0>, <rdkit.Chem.rdchem.Mol object at 0x7fdd14774120>, <rdkit.Chem.rdchem.Mol object at 0x7fdd14774970>, <rdkit.Chem.rdchem.Mol object at 0x7fdd14775070>]","[<rdkit.Chem.rdchem.Mol object at 0x7fdd1476fb50>, <rdkit.Chem.rdchem.Mol object at 0x7fdd147743c0>, <rdkit.Chem.rdchem.Mol object at 0x7fdd1476dd20>, <rdkit.Chem.rdchem.Mol object at 0x7fdd1476ca50>]","[<rdkit.Chem.rdchem.Mol object at 0x7fdd1476c970>, <rdkit.Chem.rdchem.Mol object at 0x7fdd147749e0>, <rdkit.Chem.rdchem.Mol object at 0x7fdd14774120>, <rdkit.Chem.rdchem.Mol object at 0x7fdd14774970>, <rdkit.Chem.rdchem.Mol object at 0x7fdd14775070>, '.', <rdkit.Chem.rdchem.Mol object at 0x7fdd1476fb50>, <rdkit.Chem.rdchem.Mol object at 0x7fdd147743c0>, <rdkit.Chem.rdchem.Mol object at 0x7fdd1476dd20>, <rdkit.Chem.rdchem.Mol object at 0x7fdd1476ca50>]","[0, 0, 0, 0, 0, 0, 0, 4467, 4468, 4469, 4470, 4471, 1, 4472, 4473, 4474, 4475]"
PBDB-T,F-F,-5.297714285714285,-3.4170000000000003,-5.72,-4.13,0.833,CB,DIO,25.0,PEDOT:PSS,PDINO,10.85,10.85,0.88,71.0,"[<rdkit.Chem.rdchem.Mol object at 0x7fdd1476e7a0>, <rdkit.Chem.rdchem.Mol object at 0x7fdd147740b0>, <rdkit.Chem.rdchem.Mol object at 0x7fdd14774580>, <rdkit.Chem.rdchem.Mol object at 0x7fdd14774350>, <rdkit.Chem.rdchem.Mol object at 0x7fdd14774200>]","[<rdkit.Chem.rdchem.Mol object at 0x7fdd1476fa70>, <rdkit.Chem.rdchem.Mol object at 0x7fdd14775700>, <rdkit.Chem.rdchem.Mol object at 0x7fdd1476ea40>, <rdkit.Chem.rdchem.Mol object at 0x7fdd147757e0>]","[<rdkit.Chem.rdchem.Mol object at 0x7fdd1476e7a0>, <rdkit.Chem.rdchem.Mol object at 0x7fdd147740b0>, <rdkit.Chem.rdchem.Mol object at 0x7fdd14774580>, <rdkit.Chem.rdchem.Mol object at 0x7fdd14774350>, <rdkit.Chem.rdchem.Mol object at 0x7fdd14774200>, '.', <rdkit.Chem.rdchem.Mol object at 0x7fdd1476fa70>, <rdkit.Chem.rdchem.Mol object at 0x7fdd14775700>, <rdkit.Chem.rdchem.Mol object at 0x7fdd1476ea40>, <rdkit.Chem.rdchem.Mol object at 0x7fdd147757e0>]","[0, 0, 0, 0, 0, 0, 0, 4476, 4477, 4478, 4479, 4480, 1, 4481, 4482, 4483, 4484]"
PBDB-T,F-Cl,-5.297714285714285,-3.4170000000000003,-5.62,-4.04,1.0,CB,DIO,25.0,PEDOT:PSS,PDINO,11.47,11.49,0.87,75.0,"[<rdkit.Chem.rdchem.Mol object at 0x7fdd1476f990>, <rdkit.Chem.rdchem.Mol object at 0x7fdd14774ac0>, <rdkit.Chem.rdchem.Mol object at 0x7fdd147745f0>, <rdkit.Chem.rdchem.Mol object at 0x7fdd14774660>, <rdkit.Chem.rdchem.Mol object at 0x7fdd147747b0>]","[<rdkit.Chem.rdchem.Mol object at 0x7fdd1476d230>, <rdkit.Chem.rdchem.Mol object at 0x7fdd14774cf0>, <rdkit.Chem.rdchem.Mol object at 0x7fdd1476dfc0>, <rdkit.Chem.rdchem.Mol object at 0x7fdd14775930>]","[<rdkit.Chem.rdchem.Mol object at 0x7fdd1476f990>, <rdkit.Chem.rdchem.Mol object at 0x7fdd14774ac0>, <rdkit.Chem.rdchem.Mol object at 0x7fdd147745f0>, <rdkit.Chem.rdchem.Mol object at 0x7fdd14774660>, <rdkit.Chem.rdchem.Mol object at 0x7fdd147747b0>, '.', <rdkit.Chem.rdchem.Mol object at 0x7fdd1476d230>, <rdkit.Chem.rdchem.Mol object at 0x7fdd14774cf0>, <rdkit.Chem.rdchem.Mol object at 0x7fdd1476dfc0>, <rdkit.Chem.rdchem.Mol object at 0x7fdd14775930>]","[0, 0, 0, 0, 0, 0, 0, 4485, 4486, 4487, 4488, 4489, 1, 4490, 4491, 4492, 4493]"
PBDB-T,F-Br,-5.297714285714285,-3.4170000000000003,-5.62,-4.06,1.0,CB,DIO,25.0,PEDOT:PSS,PDINO,12.05,12.05,0.87,76.0,"[<rdkit.Chem.rdchem.Mol object at 0x7fdd1476fdf0>, <rdkit.Chem.rdchem.Mol object at 0x7fdd14774900>, <rdkit.Chem.rdchem.Mol object at 0x7fdd14774ba0>, <rdkit.Chem.rdchem.Mol object at 0x7fdd14774740>, <rdkit.Chem.rdchem.Mol object at 0x7fdd147752a0>]","[<rdkit.Chem.rdchem.Mol object at 0x7fdd14775d90>, <rdkit.Chem.rdchem.Mol object at 0x7fdd14774b30>, <rdkit.Chem.rdchem.Mol object at 0x7fdd1476fca0>, <rdkit.Chem.rdchem.Mol object at 0x7fdd14775ee0>]","[<rdkit.Chem.rdchem.Mol object at 0x7fdd1476fdf0>, <rdkit.Chem.rdchem.Mol object at 0x7fdd14774900>, <rdkit.Chem.rdchem.Mol object at 0x7fdd14774ba0>, <rdkit.Chem.rdchem.Mol object at 0x7fdd14774740>, <rdkit.Chem.rdchem.Mol object at 0x7fdd147752a0>, '.', <rdkit.Chem.rdchem.Mol object at 0x7fdd14775d90>, <rdkit.Chem.rdchem.Mol object at 0x7fdd14774b30>, <rdkit.Chem.rdchem.Mol object at 0x7fdd1476fca0>, <rdkit.Chem.rdchem.Mol object at 0x7fdd14775ee0>]","[0, 0, 0, 0, 0, 0, 0, 4494, 4495, 4496, 4497, 4498, 1, 4499, 4500, 4501, 4502]"
PBDB-T,DF-PCIC,-5.297714285714285,-3.4170000000000003,-5.49,-3.77,0.833,CF,CN,100.0,MoOx,ZnO,11.63,11.34,0.86,72.62,"[<rdkit.Chem.rdchem.Mol object at 0x7fdd1476e9d0>, <rdkit.Chem.rdchem.Mol object at 0x7fdd147754d0>, <rdkit.Chem.rdchem.Mol object at 0x7fdd147742e0>, <rdkit.Chem.rdchem.Mol object at 0x7fdd14775230>, <rdkit.Chem.rdchem.Mol object at 0x7fdd14775620>]","[<rdkit.Chem.rdchem.Mol object at 0x7fdd14776260>, <rdkit.Chem.rdchem.Mol object at 0x7fdd14774190>, <rdkit.Chem.rdchem.Mol object at 0x7fdd14776110>, <rdkit.Chem.rdchem.Mol object at 0x7fdd14775150>, <rdkit.Chem.rdchem.Mol object at 0x7fdd147759a0>]","[<rdkit.Chem.rdchem.Mol object at 0x7fdd1476e9d0>, <rdkit.Chem.rdchem.Mol object at 0x7fdd147754d0>, <rdkit.Chem.rdchem.Mol object at 0x7fdd147742e0>, <rdkit.Chem.rdchem.Mol object at 0x7fdd14775230>, <rdkit.Chem.rdchem.Mol object at 0x7fdd14775620>, '.', <rdkit.Chem.rdchem.Mol object at 0x7fdd14776260>, <rdkit.Chem.rdchem.Mol object at 0x7fdd14774190>, <rdkit.Chem.rdchem.Mol object at 0x7fdd14776110>, <rdkit.Chem.rdchem.Mol object at 0x7fdd14775150>, <rdkit.Chem.rdchem.Mol object at 0x7fdd147759a0>]","[0, 0, 0, 0, 0, 0, 4503, 4504, 4505, 4506, 4507, 1, 4508, 4509, 4510, 4511, 4512]"
PBDB-T,DF-PCNC,-5.297714285714285,-3.4170000000000003,-5.42,-3.81,0.833,CF,CN,130.0,MoOx,ZnO,10.14,10.27,0.91,72.07,"[<rdkit.Chem.rdchem.Mol object at 0x7fdd1476d1c0>, <rdkit.Chem.rdchem.Mol object at 0x7fdd14774eb0>, <rdkit.Chem.rdchem.Mol object at 0x7fdd14774f20>, <rdkit.Chem.rdchem.Mol object at 0x7fdd147760a0>, <rdkit.Chem.rdchem.Mol object at 0x7fdd14776730>]","[<rdkit.Chem.rdchem.Mol object at 0x7fdd14776880>, <rdkit.Chem.rdchem.Mol object at 0x7fdd147755b0>, <rdkit.Chem.rdchem.Mol object at 0x7fdd14775690>, <rdkit.Chem.rdchem.Mol object at 0x7fdd14774c10>, <rdkit.Chem.rdchem.Mol object at 0x7fdd14774040>]","[<rdkit.Chem.rdchem.Mol object at 0x7fdd1476d1c0>, <rdkit.Chem.rdchem.Mol object at 0x7fdd14774eb0>, <rdkit.Chem.rdchem.Mol object at 0x7fdd14774f20>, <rdkit.Chem.rdchem.Mol object at 0x7fdd147760a0>, <rdkit.Chem.rdchem.Mol object at 0x7fdd14776730>, '.', <rdkit.Chem.rdchem.Mol object at 0x7fdd14776880>, <rdkit.Chem.rdchem.Mol object at 0x7fdd147755b0>, <rdkit.Chem.rdchem.Mol object at 0x7fdd14775690>, <rdkit.Chem.rdchem.Mol object at 0x7fdd14774c10>, <rdkit.Chem.rdchem.Mol object at 0x7fdd14774040>]","[0, 0, 0, 0, 0, 0, 4513, 4514, 4515, 4516, 4517, 1, 4518, 4519, 4520, 4521, 4522]"