Donor,Acceptor,HOMO_D_eV,LUMO_D_eV,HOMO_A_eV,LUMO_A_eV,D_A_ratio_m_m,solvent,solvent_additive,annealing_temperature,hole_contact_layer,electron_contact_layer,PCE_percent,calc_PCE_percent,Voc_V,FF_percent,Donor_BRICS,Acceptor_BRICS,DA_pair_BRICS,DA_tokenized_BRICS
PCDTBT-C12,SM2,-5.23,-3.26,-5.98,-3.62,0.5,DCB,_,90.0,PEDOT:PSS,LiF,0.74,0.74,1.11,30.0,"[<rdkit.Chem.rdchem.Mol object at 0x7fdd14841a80>, <rdkit.Chem.rdchem.Mol object at 0x7fdd14843680>, <rdkit.Chem.rdchem.Mol object at 0x7fdd148436f0>, <rdkit.Chem.rdchem.Mol object at 0x7fdd1484cd60>, <rdkit.Chem.rdchem.Mol object at 0x7fdd1484c2e0>, <rdkit.Chem.rdchem.Mol object at 0x7fdd1484cc10>, <rdkit.Chem.rdchem.Mol object at 0x7fdd1484cba0>]","[<rdkit.Chem.rdchem.Mol object at 0x7fdd14841230>, <rdkit.Chem.rdchem.Mol object at 0x7fdd1484c740>, <rdkit.Chem.rdchem.Mol object at 0x7fdd1484ceb0>, <rdkit.Chem.rdchem.Mol object at 0x7fdd1484c820>]","[<rdkit.Chem.rdchem.Mol object at 0x7fdd14841a80>, <rdkit.Chem.rdchem.Mol object at 0x7fdd14843680>, <rdkit.Chem.rdchem.Mol object at 0x7fdd148436f0>, <rdkit.Chem.rdchem.Mol object at 0x7fdd1484cd60>, <rdkit.Chem.rdchem.Mol object at 0x7fdd1484c2e0>, <rdkit.Chem.rdchem.Mol object at 0x7fdd1484cc10>, <rdkit.Chem.rdchem.Mol object at 0x7fdd1484cba0>, '.', <rdkit.Chem.rdchem.Mol object at 0x7fdd14841230>, <rdkit.Chem.rdchem.Mol object at 0x7fdd1484c740>, <rdkit.Chem.rdchem.Mol object at 0x7fdd1484ceb0>, <rdkit.Chem.rdchem.Mol object at 0x7fdd1484c820>]","[0, 0, 0, 0, 0, 1148, 1149, 1150, 1151, 1152, 1153, 1154, 1, 1155, 1156, 1157, 1158]"
PCDTBT-C12,SM3,-5.23,-3.26,-5.95,-3.68,0.5,DCB,_,90.0,PEDOT:PSS,LiF,0.56,0.56,1.09,30.0,"[<rdkit.Chem.rdchem.Mol object at 0x7fdd1484d070>, <rdkit.Chem.rdchem.Mol object at 0x7fdd14843920>, <rdkit.Chem.rdchem.Mol object at 0x7fdd14842260>, <rdkit.Chem.rdchem.Mol object at 0x7fdd1484c6d0>, <rdkit.Chem.rdchem.Mol object at 0x7fdd1484c040>, <rdkit.Chem.rdchem.Mol object at 0x7fdd1484c3c0>, <rdkit.Chem.rdchem.Mol object at 0x7fdd1484c270>]","[<rdkit.Chem.rdchem.Mol object at 0x7fdd148400b0>, <rdkit.Chem.rdchem.Mol object at 0x7fdd1484cb30>, <rdkit.Chem.rdchem.Mol object at 0x7fdd1484c970>, <rdkit.Chem.rdchem.Mol object at 0x7fdd1484d0e0>, <rdkit.Chem.rdchem.Mol object at 0x7fdd1484ce40>, <rdkit.Chem.rdchem.Mol object at 0x7fdd1484c7b0>]","[<rdkit.Chem.rdchem.Mol object at 0x7fdd1484d070>, <rdkit.Chem.rdchem.Mol object at 0x7fdd14843920>, <rdkit.Chem.rdchem.Mol object at 0x7fdd14842260>, <rdkit.Chem.rdchem.Mol object at 0x7fdd1484c6d0>, <rdkit.Chem.rdchem.Mol object at 0x7fdd1484c040>, <rdkit.Chem.rdchem.Mol object at 0x7fdd1484c3c0>, <rdkit.Chem.rdchem.Mol object at 0x7fdd1484c270>, '.', <rdkit.Chem.rdchem.Mol object at 0x7fdd148400b0>, <rdkit.Chem.rdchem.Mol object at 0x7fdd1484cb30>, <rdkit.Chem.rdchem.Mol object at 0x7fdd1484c970>, <rdkit.Chem.rdchem.Mol object at 0x7fdd1484d0e0>, <rdkit.Chem.rdchem.Mol object at 0x7fdd1484ce40>, <rdkit.Chem.rdchem.Mol object at 0x7fdd1484c7b0>]","[0, 0, 0, 1159, 1160, 1161, 1162, 1163, 1164, 1165, 1, 1166, 1167, 1168, 1169, 1170, 1171]"
PCDTBT-C12,SM4,-5.23,-3.26,-5.8,-3.65,0.5,DCB,_,90.0,PEDOT:PSS,LiF,0.13,0.13,1.24,28.0,"[<rdkit.Chem.rdchem.Mol object at 0x7fdd1484ca50>, <rdkit.Chem.rdchem.Mol object at 0x7fdd1484d2a0>, <rdkit.Chem.rdchem.Mol object at 0x7fdd1484d4d0>, <rdkit.Chem.rdchem.Mol object at 0x7fdd1484d000>, <rdkit.Chem.rdchem.Mol object at 0x7fdd1484c5f0>, <rdkit.Chem.rdchem.Mol object at 0x7fdd1484c430>, <rdkit.Chem.rdchem.Mol object at 0x7fdd1484d1c0>]","[<rdkit.Chem.rdchem.Mol object at 0x7fdd14843ca0>, <rdkit.Chem.rdchem.Mol object at 0x7fdd1484cac0>, <rdkit.Chem.rdchem.Mol object at 0x7fdd1484d230>, <rdkit.Chem.rdchem.Mol object at 0x7fdd1484d460>, <rdkit.Chem.rdchem.Mol object at 0x7fdd1484c200>, <rdkit.Chem.rdchem.Mol object at 0x7fdd1484d620>]","[<rdkit.Chem.rdchem.Mol object at 0x7fdd1484ca50>, <rdkit.Chem.rdchem.Mol object at 0x7fdd1484d2a0>, <rdkit.Chem.rdchem.Mol object at 0x7fdd1484d4d0>, <rdkit.Chem.rdchem.Mol object at 0x7fdd1484d000>, <rdkit.Chem.rdchem.Mol object at 0x7fdd1484c5f0>, <rdkit.Chem.rdchem.Mol object at 0x7fdd1484c430>, <rdkit.Chem.rdchem.Mol object at 0x7fdd1484d1c0>, '.', <rdkit.Chem.rdchem.Mol object at 0x7fdd14843ca0>, <rdkit.Chem.rdchem.Mol object at 0x7fdd1484cac0>, <rdkit.Chem.rdchem.Mol object at 0x7fdd1484d230>, <rdkit.Chem.rdchem.Mol object at 0x7fdd1484d460>, <rdkit.Chem.rdchem.Mol object at 0x7fdd1484c200>, <rdkit.Chem.rdchem.Mol object at 0x7fdd1484d620>]","[0, 0, 0, 1172, 1173, 1174, 1175, 1176, 1177, 1178, 1, 1179, 1180, 1181, 1182, 1183, 1184]"
PTB7,SFBRCN,-5.175,-3.435,-5.93,-3.86,0.833,CB,DIO,25.0,MoOx,ZnO,7.34,7.15,0.85,60.7,"[<rdkit.Chem.rdchem.Mol object at 0x7fdd1484d3f0>, <rdkit.Chem.rdchem.Mol object at 0x7fdd1484d770>, <rdkit.Chem.rdchem.Mol object at 0x7fdd1484d380>, <rdkit.Chem.rdchem.Mol object at 0x7fdd1484c580>, <rdkit.Chem.rdchem.Mol object at 0x7fdd1484da10>]","[<rdkit.Chem.rdchem.Mol object at 0x7fdd1484d930>, <rdkit.Chem.rdchem.Mol object at 0x7fdd1484d7e0>, <rdkit.Chem.rdchem.Mol object at 0x7fdd1484d700>, <rdkit.Chem.rdchem.Mol object at 0x7fdd1484d850>, <rdkit.Chem.rdchem.Mol object at 0x7fdd1484d150>]","[<rdkit.Chem.rdchem.Mol object at 0x7fdd1484d3f0>, <rdkit.Chem.rdchem.Mol object at 0x7fdd1484d770>, <rdkit.Chem.rdchem.Mol object at 0x7fdd1484d380>, <rdkit.Chem.rdchem.Mol object at 0x7fdd1484c580>, <rdkit.Chem.rdchem.Mol object at 0x7fdd1484da10>, '.', <rdkit.Chem.rdchem.Mol object at 0x7fdd1484d930>, <rdkit.Chem.rdchem.Mol object at 0x7fdd1484d7e0>, <rdkit.Chem.rdchem.Mol object at 0x7fdd1484d700>, <rdkit.Chem.rdchem.Mol object at 0x7fdd1484d850>, <rdkit.Chem.rdchem.Mol object at 0x7fdd1484d150>]","[0, 0, 0, 0, 0, 0, 1185, 1186, 1187, 1188, 1189, 1, 1190, 1191, 1192, 1193, 1194]"
PTB7-Th,SFBRCN,-5.204782608695651,-3.5391891891891896,-5.93,-3.86,0.833,CB,DIO,25.0,MoOx,ZnO,9.9,9.93,0.9,64.0,"[<rdkit.Chem.rdchem.Mol object at 0x7fdd1484d9a0>, <rdkit.Chem.rdchem.Mol object at 0x7fdd1484d5b0>, <rdkit.Chem.rdchem.Mol object at 0x7fdd1484cdd0>, <rdkit.Chem.rdchem.Mol object at 0x7fdd1484cf90>, <rdkit.Chem.rdchem.Mol object at 0x7fdd1484d690>, <rdkit.Chem.rdchem.Mol object at 0x7fdd1484d310>, <rdkit.Chem.rdchem.Mol object at 0x7fdd1484e0a0>]","[<rdkit.Chem.rdchem.Mol object at 0x7fdd1484dc40>, <rdkit.Chem.rdchem.Mol object at 0x7fdd1484dd20>, <rdkit.Chem.rdchem.Mol object at 0x7fdd1484c350>, <rdkit.Chem.rdchem.Mol object at 0x7fdd1484e180>, <rdkit.Chem.rdchem.Mol object at 0x7fdd1484c190>]","[<rdkit.Chem.rdchem.Mol object at 0x7fdd1484d9a0>, <rdkit.Chem.rdchem.Mol object at 0x7fdd1484d5b0>, <rdkit.Chem.rdchem.Mol object at 0x7fdd1484cdd0>, <rdkit.Chem.rdchem.Mol object at 0x7fdd1484cf90>, <rdkit.Chem.rdchem.Mol object at 0x7fdd1484d690>, <rdkit.Chem.rdchem.Mol object at 0x7fdd1484d310>, <rdkit.Chem.rdchem.Mol object at 0x7fdd1484e0a0>, '.', <rdkit.Chem.rdchem.Mol object at 0x7fdd1484dc40>, <rdkit.Chem.rdchem.Mol object at 0x7fdd1484dd20>, <rdkit.Chem.rdchem.Mol object at 0x7fdd1484c350>, <rdkit.Chem.rdchem.Mol object at 0x7fdd1484e180>, <rdkit.Chem.rdchem.Mol object at 0x7fdd1484c190>]","[0, 0, 0, 0, 1195, 1196, 1197, 1198, 1199, 1200, 1201, 1, 1202, 1203, 1204, 1205, 1206]"
PBDB-T,ITIC,-5.297714285714285,-3.4170000000000003,-5.574146341463415,-3.915,1.0,CB,DIO,100.0,PEDOT:PSS,PFN-Br,10.6,10.59,0.93,67.0,"[<rdkit.Chem.rdchem.Mol object at 0x7fdd148434c0>, <rdkit.Chem.rdchem.Mol object at 0x7fdd1484e2d0>, <rdkit.Chem.rdchem.Mol object at 0x7fdd1484e490>, <rdkit.Chem.rdchem.Mol object at 0x7fdd1484e730>, <rdkit.Chem.rdchem.Mol object at 0x7fdd1484f140>]","[<rdkit.Chem.rdchem.Mol object at 0x7fdd1484f370>, <rdkit.Chem.rdchem.Mol object at 0x7fdd1484e8f0>, <rdkit.Chem.rdchem.Mol object at 0x7fdd1484e3b0>, <rdkit.Chem.rdchem.Mol object at 0x7fdd1484e880>, <rdkit.Chem.rdchem.Mol object at 0x7fdd1484e260>]","[<rdkit.Chem.rdchem.Mol object at 0x7fdd148434c0>, <rdkit.Chem.rdchem.Mol object at 0x7fdd1484e2d0>, <rdkit.Chem.rdchem.Mol object at 0x7fdd1484e490>, <rdkit.Chem.rdchem.Mol object at 0x7fdd1484e730>, <rdkit.Chem.rdchem.Mol object at 0x7fdd1484f140>, '.', <rdkit.Chem.rdchem.Mol object at 0x7fdd1484f370>, <rdkit.Chem.rdchem.Mol object at 0x7fdd1484e8f0>, <rdkit.Chem.rdchem.Mol object at 0x7fdd1484e3b0>, <rdkit.Chem.rdchem.Mol object at 0x7fdd1484e880>, <rdkit.Chem.rdchem.Mol object at 0x7fdd1484e260>]","[0, 0, 0, 0, 0, 0, 1207, 1208, 1209, 1210, 1211, 1, 1212, 1213, 1214, 1215, 1216]"
PBDB-T,ITCC,-5.297714285714285,-3.4170000000000003,-5.47,-3.76,1.0,CB,DIO,100.0,PEDOT:PSS,PFN-Br,11.4,11.4,1.01,71.0,"[<rdkit.Chem.rdchem.Mol object at 0x7fdd1484dbd0>, <rdkit.Chem.rdchem.Mol object at 0x7fdd1484ec70>, <rdkit.Chem.rdchem.Mol object at 0x7fdd1484ece0>, <rdkit.Chem.rdchem.Mol object at 0x7fdd1484e110>, <rdkit.Chem.rdchem.Mol object at 0x7fdd1484f610>]","[<rdkit.Chem.rdchem.Mol object at 0x7fdd1484f840>, <rdkit.Chem.rdchem.Mol object at 0x7fdd1484da80>, <rdkit.Chem.rdchem.Mol object at 0x7fdd1484e650>, <rdkit.Chem.rdchem.Mol object at 0x7fdd1484e030>, <rdkit.Chem.rdchem.Mol object at 0x7fdd1484f1b0>]","[<rdkit.Chem.rdchem.Mol object at 0x7fdd1484dbd0>, <rdkit.Chem.rdchem.Mol object at 0x7fdd1484ec70>, <rdkit.Chem.rdchem.Mol object at 0x7fdd1484ece0>, <rdkit.Chem.rdchem.Mol object at 0x7fdd1484e110>, <rdkit.Chem.rdchem.Mol object at 0x7fdd1484f610>, '.', <rdkit.Chem.rdchem.Mol object at 0x7fdd1484f840>, <rdkit.Chem.rdchem.Mol object at 0x7fdd1484da80>, <rdkit.Chem.rdchem.Mol object at 0x7fdd1484e650>, <rdkit.Chem.rdchem.Mol object at 0x7fdd1484e030>, <rdkit.Chem.rdchem.Mol object at 0x7fdd1484f1b0>]","[0, 0, 0, 0, 0, 0, 1217, 1218, 1219, 1220, 1221, 1, 1222, 1223, 1224, 1225, 1226]"
PBDTTT-E-T,IEIC,-5.09,-3.48,-5.455,-3.8625,0.667,CB,DIO,100.0,PEDOT:PSS,PFN-Br,4.9,4.95,0.9,47.0,"[<rdkit.Chem.rdchem.Mol object at 0x7fdd1484e6c0>, <rdkit.Chem.rdchem.Mol object at 0x7fdd1484eb90>, <rdkit.Chem.rdchem.Mol object at 0x7fdd1484eb20>, <rdkit.Chem.rdchem.Mol object at 0x7fdd1484ed50>, <rdkit.Chem.rdchem.Mol object at 0x7fdd1484f530>, <rdkit.Chem.rdchem.Mol object at 0x7fdd1484e1f0>, <rdkit.Chem.rdchem.Mol object at 0x7fdd1484ccf0>]","[<rdkit.Chem.rdchem.Mol object at 0x7fdd1484f3e0>, <rdkit.Chem.rdchem.Mol object at 0x7fdd1484d8c0>, <rdkit.Chem.rdchem.Mol object at 0x7fdd1484e340>, <rdkit.Chem.rdchem.Mol object at 0x7fdd1484e960>, <rdkit.Chem.rdchem.Mol object at 0x7fdd1484f290>, <rdkit.Chem.rdchem.Mol object at 0x7fdd14859070>, <rdkit.Chem.rdchem.Mol object at 0x7fdd1484fd10>]","[<rdkit.Chem.rdchem.Mol object at 0x7fdd1484e6c0>, <rdkit.Chem.rdchem.Mol object at 0x7fdd1484eb90>, <rdkit.Chem.rdchem.Mol object at 0x7fdd1484eb20>, <rdkit.Chem.rdchem.Mol object at 0x7fdd1484ed50>, <rdkit.Chem.rdchem.Mol object at 0x7fdd1484f530>, <rdkit.Chem.rdchem.Mol object at 0x7fdd1484e1f0>, <rdkit.Chem.rdchem.Mol object at 0x7fdd1484ccf0>, '.', <rdkit.Chem.rdchem.Mol object at 0x7fdd1484f3e0>, <rdkit.Chem.rdchem.Mol object at 0x7fdd1484d8c0>, <rdkit.Chem.rdchem.Mol object at 0x7fdd1484e340>, <rdkit.Chem.rdchem.Mol object at 0x7fdd1484e960>, <rdkit.Chem.rdchem.Mol object at 0x7fdd1484f290>, <rdkit.Chem.rdchem.Mol object at 0x7fdd14859070>, <rdkit.Chem.rdchem.Mol object at 0x7fdd1484fd10>]","[0, 0, 1227, 1228, 1229, 1230, 1231, 1232, 1233, 1, 1234, 1235, 1236, 1237, 1238, 1239, 1240]"
PBDTTT-E-T,IEICO,-5.09,-3.48,-5.32,-3.95,1.0,CB,DIO,100.0,PEDOT:PSS,PFN-Br,8.4,8.42,0.82,58.0,"[<rdkit.Chem.rdchem.Mol object at 0x7fdd1484fa70>, <rdkit.Chem.rdchem.Mol object at 0x7fdd1484f6f0>, <rdkit.Chem.rdchem.Mol object at 0x7fdd1484fc30>, <rdkit.Chem.rdchem.Mol object at 0x7fdd1484fed0>, <rdkit.Chem.rdchem.Mol object at 0x7fdd1484f060>, <rdkit.Chem.rdchem.Mol object at 0x7fdd1484fd80>, <rdkit.Chem.rdchem.Mol object at 0x7fdd1484e7a0>]","[<rdkit.Chem.rdchem.Mol object at 0x7fdd1484dfc0>, <rdkit.Chem.rdchem.Mol object at 0x7fdd1484f680>, <rdkit.Chem.rdchem.Mol object at 0x7fdd1484edc0>, <rdkit.Chem.rdchem.Mol object at 0x7fdd1484f7d0>, <rdkit.Chem.rdchem.Mol object at 0x7fdd1484f5a0>, <rdkit.Chem.rdchem.Mol object at 0x7fdd1484dd90>, <rdkit.Chem.rdchem.Mol object at 0x7fdd1484ee30>, <rdkit.Chem.rdchem.Mol object at 0x7fdd1484ea40>]","[<rdkit.Chem.rdchem.Mol object at 0x7fdd1484fa70>, <rdkit.Chem.rdchem.Mol object at 0x7fdd1484f6f0>, <rdkit.Chem.rdchem.Mol object at 0x7fdd1484fc30>, <rdkit.Chem.rdchem.Mol object at 0x7fdd1484fed0>, <rdkit.Chem.rdchem.Mol object at 0x7fdd1484f060>, <rdkit.Chem.rdchem.Mol object at 0x7fdd1484fd80>, <rdkit.Chem.rdchem.Mol object at 0x7fdd1484e7a0>, '.', <rdkit.Chem.rdchem.Mol object at 0x7fdd1484dfc0>, <rdkit.Chem.rdchem.Mol object at 0x7fdd1484f680>, <rdkit.Chem.rdchem.Mol object at 0x7fdd1484edc0>, <rdkit.Chem.rdchem.Mol object at 0x7fdd1484f7d0>, <rdkit.Chem.rdchem.Mol object at 0x7fdd1484f5a0>, <rdkit.Chem.rdchem.Mol object at 0x7fdd1484dd90>, <rdkit.Chem.rdchem.Mol object at 0x7fdd1484ee30>, <rdkit.Chem.rdchem.Mol object at 0x7fdd1484ea40>]","[0, 1241, 1242, 1243, 1244, 1245, 1246, 1247, 1, 1248, 1249, 1250, 1251, 1252, 1253, 1254, 1255]"
PBTT,IEICO,-5.19,-3.11,-5.32,-3.95,1.0,CB,DIO,100.0,PEDOT:PSS,PFN-Br,9.5,9.44,0.86,61.3,"[<rdkit.Chem.rdchem.Mol object at 0x7fdd1484e500>, <rdkit.Chem.rdchem.Mol object at 0x7fdd1484e570>, <rdkit.Chem.rdchem.Mol object at 0x7fdd1484ef80>, <rdkit.Chem.rdchem.Mol object at 0x7fdd1484ef10>, <rdkit.Chem.rdchem.Mol object at 0x7fdd1484dee0>, <rdkit.Chem.rdchem.Mol object at 0x7fdd1484f4c0>, <rdkit.Chem.rdchem.Mol object at 0x7fdd1484f760>]","[<rdkit.Chem.rdchem.Mol object at 0x7fdd1484e9d0>, <rdkit.Chem.rdchem.Mol object at 0x7fdd1484ff40>, <rdkit.Chem.rdchem.Mol object at 0x7fdd1484f450>, <rdkit.Chem.rdchem.Mol object at 0x7fdd1484eea0>, <rdkit.Chem.rdchem.Mol object at 0x7fdd1484e810>, <rdkit.Chem.rdchem.Mol object at 0x7fdd1484fbc0>, <rdkit.Chem.rdchem.Mol object at 0x7fdd14858270>, <rdkit.Chem.rdchem.Mol object at 0x7fdd14858d60>]","[<rdkit.Chem.rdchem.Mol object at 0x7fdd1484e500>, <rdkit.Chem.rdchem.Mol object at 0x7fdd1484e570>, <rdkit.Chem.rdchem.Mol object at 0x7fdd1484ef80>, <rdkit.Chem.rdchem.Mol object at 0x7fdd1484ef10>, <rdkit.Chem.rdchem.Mol object at 0x7fdd1484dee0>, <rdkit.Chem.rdchem.Mol object at 0x7fdd1484f4c0>, <rdkit.Chem.rdchem.Mol object at 0x7fdd1484f760>, '.', <rdkit.Chem.rdchem.Mol object at 0x7fdd1484e9d0>, <rdkit.Chem.rdchem.Mol object at 0x7fdd1484ff40>, <rdkit.Chem.rdchem.Mol object at 0x7fdd1484f450>, <rdkit.Chem.rdchem.Mol object at 0x7fdd1484eea0>, <rdkit.Chem.rdchem.Mol object at 0x7fdd1484e810>, <rdkit.Chem.rdchem.Mol object at 0x7fdd1484fbc0>, <rdkit.Chem.rdchem.Mol object at 0x7fdd14858270>, <rdkit.Chem.rdchem.Mol object at 0x7fdd14858d60>]","[0, 1256, 1257, 1258, 1259, 1260, 1261, 1262, 1, 1263, 1264, 1265, 1266, 1267, 1268, 1269, 1270]"
PTB7-Th,IEICO,-5.204782608695651,-3.5391891891891896,-5.32,-3.95,1.0,CB,DIO,100.0,PEDOT:PSS,PFN-Br,7.3,7.32,0.91,60.5,"[<rdkit.Chem.rdchem.Mol object at 0x7fdd1484fca0>, <rdkit.Chem.rdchem.Mol object at 0x7fdd1484fe60>, <rdkit.Chem.rdchem.Mol object at 0x7fdd1484f990>, <rdkit.Chem.rdchem.Mol object at 0x7fdd1484eff0>, <rdkit.Chem.rdchem.Mol object at 0x7fdd1484c890>, <rdkit.Chem.rdchem.Mol object at 0x7fdd1484de00>, <rdkit.Chem.rdchem.Mol object at 0x7fdd14858900>]","[<rdkit.Chem.rdchem.Mol object at 0x7fdd1484ec00>, <rdkit.Chem.rdchem.Mol object at 0x7fdd1484f8b0>, <rdkit.Chem.rdchem.Mol object at 0x7fdd14859000>, <rdkit.Chem.rdchem.Mol object at 0x7fdd1484fa00>, <rdkit.Chem.rdchem.Mol object at 0x7fdd1484e420>, <rdkit.Chem.rdchem.Mol object at 0x7fdd14858c10>, <rdkit.Chem.rdchem.Mol object at 0x7fdd148584a0>, <rdkit.Chem.rdchem.Mol object at 0x7fdd148586d0>]","[<rdkit.Chem.rdchem.Mol object at 0x7fdd1484fca0>, <rdkit.Chem.rdchem.Mol object at 0x7fdd1484fe60>, <rdkit.Chem.rdchem.Mol object at 0x7fdd1484f990>, <rdkit.Chem.rdchem.Mol object at 0x7fdd1484eff0>, <rdkit.Chem.rdchem.Mol object at 0x7fdd1484c890>, <rdkit.Chem.rdchem.Mol object at 0x7fdd1484de00>, <rdkit.Chem.rdchem.Mol object at 0x7fdd14858900>, '.', <rdkit.Chem.rdchem.Mol object at 0x7fdd1484ec00>, <rdkit.Chem.rdchem.Mol object at 0x7fdd1484f8b0>, <rdkit.Chem.rdchem.Mol object at 0x7fdd14859000>, <rdkit.Chem.rdchem.Mol object at 0x7fdd1484fa00>, <rdkit.Chem.rdchem.Mol object at 0x7fdd1484e420>, <rdkit.Chem.rdchem.Mol object at 0x7fdd14858c10>, <rdkit.Chem.rdchem.Mol object at 0x7fdd148584a0>, <rdkit.Chem.rdchem.Mol object at 0x7fdd148586d0>]","[0, 1271, 1272, 1273, 1274, 1275, 1276, 1277, 1, 1278, 1279, 1280, 1281, 1282, 1283, 1284, 1285]"
PBDB-T,NITI,-5.297714285714285,-3.4170000000000003,-5.68,-3.84,1.0,CB,_,25.0,PEDOT:PSS,PNDIT-F3N,9.49,12.86,0.86,84.0,"[<rdkit.Chem.rdchem.Mol object at 0x7fdd1484f0d0>, <rdkit.Chem.rdchem.Mol object at 0x7fdd148580b0>, <rdkit.Chem.rdchem.Mol object at 0x7fdd14858430>, <rdkit.Chem.rdchem.Mol object at 0x7fdd14858350>, <rdkit.Chem.rdchem.Mol object at 0x7fdd14859af0>]","[<rdkit.Chem.rdchem.Mol object at 0x7fdd14859b60>, <rdkit.Chem.rdchem.Mol object at 0x7fdd14858c80>, <rdkit.Chem.rdchem.Mol object at 0x7fdd14859620>, <rdkit.Chem.rdchem.Mol object at 0x7fdd14858a50>, <rdkit.Chem.rdchem.Mol object at 0x7fdd14858890>, <rdkit.Chem.rdchem.Mol object at 0x7fdd14858660>]","[<rdkit.Chem.rdchem.Mol object at 0x7fdd1484f0d0>, <rdkit.Chem.rdchem.Mol object at 0x7fdd148580b0>, <rdkit.Chem.rdchem.Mol object at 0x7fdd14858430>, <rdkit.Chem.rdchem.Mol object at 0x7fdd14858350>, <rdkit.Chem.rdchem.Mol object at 0x7fdd14859af0>, '.', <rdkit.Chem.rdchem.Mol object at 0x7fdd14859b60>, <rdkit.Chem.rdchem.Mol object at 0x7fdd14858c80>, <rdkit.Chem.rdchem.Mol object at 0x7fdd14859620>, <rdkit.Chem.rdchem.Mol object at 0x7fdd14858a50>, <rdkit.Chem.rdchem.Mol object at 0x7fdd14858890>, <rdkit.Chem.rdchem.Mol object at 0x7fdd14858660>]","[0, 0, 0, 0, 0, 1299, 1300, 1301, 1302, 1303, 1, 1304, 1305, 1306, 1307, 1308, 1309]"
PTB7-Th,IHIC,-5.204782608695651,-3.5391891891891896,-5.45,-3.93,0.667,DCB,CN,25.0,MoOx,ZnO,9.41,7.75,0.744,60.9,"[<rdkit.Chem.rdchem.Mol object at 0x7fdd1484fae0>, <rdkit.Chem.rdchem.Mol object at 0x7fdd14858740>, <rdkit.Chem.rdchem.Mol object at 0x7fdd14859e00>, <rdkit.Chem.rdchem.Mol object at 0x7fdd14859930>, <rdkit.Chem.rdchem.Mol object at 0x7fdd148595b0>, <rdkit.Chem.rdchem.Mol object at 0x7fdd14858970>, <rdkit.Chem.rdchem.Mol object at 0x7fdd148592a0>]","[<rdkit.Chem.rdchem.Mol object at 0x7fdd148583c0>, <rdkit.Chem.rdchem.Mol object at 0x7fdd14859700>, <rdkit.Chem.rdchem.Mol object at 0x7fdd148593f0>, <rdkit.Chem.rdchem.Mol object at 0x7fdd14859d20>, <rdkit.Chem.rdchem.Mol object at 0x7fdd14858eb0>]","[<rdkit.Chem.rdchem.Mol object at 0x7fdd1484fae0>, <rdkit.Chem.rdchem.Mol object at 0x7fdd14858740>, <rdkit.Chem.rdchem.Mol object at 0x7fdd14859e00>, <rdkit.Chem.rdchem.Mol object at 0x7fdd14859930>, <rdkit.Chem.rdchem.Mol object at 0x7fdd148595b0>, <rdkit.Chem.rdchem.Mol object at 0x7fdd14858970>, <rdkit.Chem.rdchem.Mol object at 0x7fdd148592a0>, '.', <rdkit.Chem.rdchem.Mol object at 0x7fdd148583c0>, <rdkit.Chem.rdchem.Mol object at 0x7fdd14859700>, <rdkit.Chem.rdchem.Mol object at 0x7fdd148593f0>, <rdkit.Chem.rdchem.Mol object at 0x7fdd14859d20>, <rdkit.Chem.rdchem.Mol object at 0x7fdd14858eb0>]","[0, 0, 0, 0, 1310, 1311, 1312, 1313, 1314, 1315, 1316, 1, 1317, 1318, 1319, 1320, 1321]"