Donor,Acceptor,HOMO_D_eV,LUMO_D_eV,HOMO_A_eV,LUMO_A_eV,D_A_ratio_m_m,solvent,solvent_additive,annealing_temperature,hole_contact_layer,electron_contact_layer,PCE_percent,calc_PCE_percent,Voc_V,FF_percent,Donor_BRICS,Acceptor_BRICS,DA_pair_BRICS,DA_tokenized_BRICS
PBDB-T,DTCCIC-C17,-5.297714285714285,-3.4170000000000003,-5.46,-3.65,0.667,CB,DIO,25.0,MoOx,ZnO,9.02,9.02,0.96,67.0,"[<rdkit.Chem.rdchem.Mol object at 0x7fdd148852a0>, <rdkit.Chem.rdchem.Mol object at 0x7fdd14887060>, <rdkit.Chem.rdchem.Mol object at 0x7fdd14885070>, <rdkit.Chem.rdchem.Mol object at 0x7fdd14886880>, <rdkit.Chem.rdchem.Mol object at 0x7fdd14885310>]","[<rdkit.Chem.rdchem.Mol object at 0x7fdd14887990>, <rdkit.Chem.rdchem.Mol object at 0x7fdd14885230>, <rdkit.Chem.rdchem.Mol object at 0x7fdd14886500>, <rdkit.Chem.rdchem.Mol object at 0x7fdd148860a0>, <rdkit.Chem.rdchem.Mol object at 0x7fdd14884040>, <rdkit.Chem.rdchem.Mol object at 0x7fdd14887bc0>]","[<rdkit.Chem.rdchem.Mol object at 0x7fdd148852a0>, <rdkit.Chem.rdchem.Mol object at 0x7fdd14887060>, <rdkit.Chem.rdchem.Mol object at 0x7fdd14885070>, <rdkit.Chem.rdchem.Mol object at 0x7fdd14886880>, <rdkit.Chem.rdchem.Mol object at 0x7fdd14885310>, '.', <rdkit.Chem.rdchem.Mol object at 0x7fdd14887990>, <rdkit.Chem.rdchem.Mol object at 0x7fdd14885230>, <rdkit.Chem.rdchem.Mol object at 0x7fdd14886500>, <rdkit.Chem.rdchem.Mol object at 0x7fdd148860a0>, <rdkit.Chem.rdchem.Mol object at 0x7fdd14884040>, <rdkit.Chem.rdchem.Mol object at 0x7fdd14887bc0>]","[0, 0, 0, 0, 0, 1639, 1640, 1641, 1642, 1643, 1, 1644, 1645, 1646, 1647, 1648, 1649]"
P3HT,O-IDTBR,-5.057777777777777,-2.989444444444445,-5.535,-3.74,1.0,CB,_,130.0,MoOx,ZnO,6.3,6.0,0.72,60.0,"[<rdkit.Chem.rdchem.Mol object at 0x7fdd14885700>, <rdkit.Chem.rdchem.Mol object at 0x7fdd14886340>, <rdkit.Chem.rdchem.Mol object at 0x7fdd14885a10>, <rdkit.Chem.rdchem.Mol object at 0x7fdd14886e30>]","[<rdkit.Chem.rdchem.Mol object at 0x7fdd14886b90>, <rdkit.Chem.rdchem.Mol object at 0x7fdd14886ff0>, <rdkit.Chem.rdchem.Mol object at 0x7fdd14885af0>, <rdkit.Chem.rdchem.Mol object at 0x7fdd14887450>, <rdkit.Chem.rdchem.Mol object at 0x7fdd148867a0>]","[<rdkit.Chem.rdchem.Mol object at 0x7fdd14885700>, <rdkit.Chem.rdchem.Mol object at 0x7fdd14886340>, <rdkit.Chem.rdchem.Mol object at 0x7fdd14885a10>, <rdkit.Chem.rdchem.Mol object at 0x7fdd14886e30>, '.', <rdkit.Chem.rdchem.Mol object at 0x7fdd14886b90>, <rdkit.Chem.rdchem.Mol object at 0x7fdd14886ff0>, <rdkit.Chem.rdchem.Mol object at 0x7fdd14885af0>, <rdkit.Chem.rdchem.Mol object at 0x7fdd14887450>, <rdkit.Chem.rdchem.Mol object at 0x7fdd148867a0>]","[0, 0, 0, 0, 0, 0, 0, 1650, 1651, 1652, 1653, 1, 1654, 1655, 1656, 1657, 1658]"
P3HT,EH-IDTBR,-5.057777777777777,-2.989444444444445,-5.58,-3.9,1.0,CB,_,130.0,MoOx,ZnO,6.0,5.7,0.76,62.0,"[<rdkit.Chem.rdchem.Mol object at 0x7fdd14887370>, <rdkit.Chem.rdchem.Mol object at 0x7fdd148849e0>, <rdkit.Chem.rdchem.Mol object at 0x7fdd14885e00>, <rdkit.Chem.rdchem.Mol object at 0x7fdd14884d60>]","[<rdkit.Chem.rdchem.Mol object at 0x7fdd14884f90>, <rdkit.Chem.rdchem.Mol object at 0x7fdd14887680>, <rdkit.Chem.rdchem.Mol object at 0x7fdd148862d0>, <rdkit.Chem.rdchem.Mol object at 0x7fdd14884510>, <rdkit.Chem.rdchem.Mol object at 0x7fdd14885d90>]","[<rdkit.Chem.rdchem.Mol object at 0x7fdd14887370>, <rdkit.Chem.rdchem.Mol object at 0x7fdd148849e0>, <rdkit.Chem.rdchem.Mol object at 0x7fdd14885e00>, <rdkit.Chem.rdchem.Mol object at 0x7fdd14884d60>, '.', <rdkit.Chem.rdchem.Mol object at 0x7fdd14884f90>, <rdkit.Chem.rdchem.Mol object at 0x7fdd14887680>, <rdkit.Chem.rdchem.Mol object at 0x7fdd148862d0>, <rdkit.Chem.rdchem.Mol object at 0x7fdd14884510>, <rdkit.Chem.rdchem.Mol object at 0x7fdd14885d90>]","[0, 0, 0, 0, 0, 0, 0, 1659, 1660, 1661, 1662, 1, 1663, 1664, 1665, 1666, 1667]"
P3HT,FBR,-5.057777777777777,-2.989444444444445,-5.786666666666666,-3.673333333333333,1.0,CF:DCB (80:20),_,110.0,MoO3,ZnO,4.11,4.11,0.82,63.0,"[<rdkit.Chem.rdchem.Mol object at 0x7fdd14887b50>, <rdkit.Chem.rdchem.Mol object at 0x7fdd14887760>, <rdkit.Chem.rdchem.Mol object at 0x7fdd14887d80>, <rdkit.Chem.rdchem.Mol object at 0x7fdd14886ea0>]","[<rdkit.Chem.rdchem.Mol object at 0x7fdd14887d10>, <rdkit.Chem.rdchem.Mol object at 0x7fdd14887a70>, <rdkit.Chem.rdchem.Mol object at 0x7fdd14886810>, <rdkit.Chem.rdchem.Mol object at 0x7fdd14885460>, <rdkit.Chem.rdchem.Mol object at 0x7fdd14887530>]","[<rdkit.Chem.rdchem.Mol object at 0x7fdd14887b50>, <rdkit.Chem.rdchem.Mol object at 0x7fdd14887760>, <rdkit.Chem.rdchem.Mol object at 0x7fdd14887d80>, <rdkit.Chem.rdchem.Mol object at 0x7fdd14886ea0>, '.', <rdkit.Chem.rdchem.Mol object at 0x7fdd14887d10>, <rdkit.Chem.rdchem.Mol object at 0x7fdd14887a70>, <rdkit.Chem.rdchem.Mol object at 0x7fdd14886810>, <rdkit.Chem.rdchem.Mol object at 0x7fdd14885460>, <rdkit.Chem.rdchem.Mol object at 0x7fdd14887530>]","[0, 0, 0, 0, 0, 0, 0, 1668, 1669, 1670, 1671, 1, 1672, 1673, 1674, 1675, 1676]"
PBDB-T,IDTCN,-5.297714285714285,-3.4170000000000003,-5.890000000000001,-3.93,1.0,CB,DIO,110.0,MoOx,ZnO,6.4,6.4,0.85,62.48,"[<rdkit.Chem.rdchem.Mol object at 0x7fdd148857e0>, <rdkit.Chem.rdchem.Mol object at 0x7fdd14886570>, <rdkit.Chem.rdchem.Mol object at 0x7fdd14884970>, <rdkit.Chem.rdchem.Mol object at 0x7fdd14887df0>, <rdkit.Chem.rdchem.Mol object at 0x7fdd1486c820>]","[<rdkit.Chem.rdchem.Mol object at 0x7fdd14886960>, <rdkit.Chem.rdchem.Mol object at 0x7fdd14886730>, <rdkit.Chem.rdchem.Mol object at 0x7fdd148878b0>, <rdkit.Chem.rdchem.Mol object at 0x7fdd14887220>, <rdkit.Chem.rdchem.Mol object at 0x7fdd14887f40>]","[<rdkit.Chem.rdchem.Mol object at 0x7fdd148857e0>, <rdkit.Chem.rdchem.Mol object at 0x7fdd14886570>, <rdkit.Chem.rdchem.Mol object at 0x7fdd14884970>, <rdkit.Chem.rdchem.Mol object at 0x7fdd14887df0>, <rdkit.Chem.rdchem.Mol object at 0x7fdd1486c820>, '.', <rdkit.Chem.rdchem.Mol object at 0x7fdd14886960>, <rdkit.Chem.rdchem.Mol object at 0x7fdd14886730>, <rdkit.Chem.rdchem.Mol object at 0x7fdd148878b0>, <rdkit.Chem.rdchem.Mol object at 0x7fdd14887220>, <rdkit.Chem.rdchem.Mol object at 0x7fdd14887f40>]","[0, 0, 0, 0, 0, 0, 1677, 1678, 1679, 1680, 1681, 1, 1682, 1683, 1684, 1685, 1686]"
P3HT,NAI-FN-NAI(BO),-5.057777777777777,-2.989444444444445,-6.07,-3.96,1.0,CB,_,25.0,PEDOT:PSS,LiF,3.8,3.93,0.9,47.0,"[<rdkit.Chem.rdchem.Mol object at 0x7fdd14887e60>, <rdkit.Chem.rdchem.Mol object at 0x7fdd14885150>, <rdkit.Chem.rdchem.Mol object at 0x7fdd1486c120>, <rdkit.Chem.rdchem.Mol object at 0x7fdd1486c970>]","[<rdkit.Chem.rdchem.Mol object at 0x7fdd14887c30>, <rdkit.Chem.rdchem.Mol object at 0x7fdd14885b60>, <rdkit.Chem.rdchem.Mol object at 0x7fdd14885fc0>, <rdkit.Chem.rdchem.Mol object at 0x7fdd14887a00>]","[<rdkit.Chem.rdchem.Mol object at 0x7fdd14887e60>, <rdkit.Chem.rdchem.Mol object at 0x7fdd14885150>, <rdkit.Chem.rdchem.Mol object at 0x7fdd1486c120>, <rdkit.Chem.rdchem.Mol object at 0x7fdd1486c970>, '.', <rdkit.Chem.rdchem.Mol object at 0x7fdd14887c30>, <rdkit.Chem.rdchem.Mol object at 0x7fdd14885b60>, <rdkit.Chem.rdchem.Mol object at 0x7fdd14885fc0>, <rdkit.Chem.rdchem.Mol object at 0x7fdd14887a00>]","[0, 0, 0, 0, 0, 0, 0, 0, 1687, 1688, 1689, 1690, 1, 1691, 1692, 1693, 1694]"
P3HT,NAI-FN-NAI(DT),-5.057777777777777,-2.989444444444445,-6.09,-3.97,1.0,CB,_,25.0,PEDOT:PSS,LiF,0.75,0.79,0.89,35.0,"[<rdkit.Chem.rdchem.Mol object at 0x7fdd14887ae0>, <rdkit.Chem.rdchem.Mol object at 0x7fdd14885540>, <rdkit.Chem.rdchem.Mol object at 0x7fdd1486ca50>, <rdkit.Chem.rdchem.Mol object at 0x7fdd1486c510>]","[<rdkit.Chem.rdchem.Mol object at 0x7fdd14887ed0>, <rdkit.Chem.rdchem.Mol object at 0x7fdd14886030>, <rdkit.Chem.rdchem.Mol object at 0x7fdd148861f0>, <rdkit.Chem.rdchem.Mol object at 0x7fdd1486cc80>]","[<rdkit.Chem.rdchem.Mol object at 0x7fdd14887ae0>, <rdkit.Chem.rdchem.Mol object at 0x7fdd14885540>, <rdkit.Chem.rdchem.Mol object at 0x7fdd1486ca50>, <rdkit.Chem.rdchem.Mol object at 0x7fdd1486c510>, '.', <rdkit.Chem.rdchem.Mol object at 0x7fdd14887ed0>, <rdkit.Chem.rdchem.Mol object at 0x7fdd14886030>, <rdkit.Chem.rdchem.Mol object at 0x7fdd148861f0>, <rdkit.Chem.rdchem.Mol object at 0x7fdd1486cc80>]","[0, 0, 0, 0, 0, 0, 0, 0, 1695, 1696, 1697, 1698, 1, 1699, 1700, 1701, 1702]"
P3HT,PI-FN-PI(DT),-5.057777777777777,-2.989444444444445,-6.02,-3.92,1.0,CB,_,25.0,PEDOT:PSS,LiF,2.2,2.16,0.91,48.0,"[<rdkit.Chem.rdchem.Mol object at 0x7fdd148877d0>, <rdkit.Chem.rdchem.Mol object at 0x7fdd14885380>, <rdkit.Chem.rdchem.Mol object at 0x7fdd1486ce40>, <rdkit.Chem.rdchem.Mol object at 0x7fdd1486c3c0>]","[<rdkit.Chem.rdchem.Mol object at 0x7fdd14886110>, <rdkit.Chem.rdchem.Mol object at 0x7fdd14885c40>, <rdkit.Chem.rdchem.Mol object at 0x7fdd14886490>, <rdkit.Chem.rdchem.Mol object at 0x7fdd1486cba0>]","[<rdkit.Chem.rdchem.Mol object at 0x7fdd148877d0>, <rdkit.Chem.rdchem.Mol object at 0x7fdd14885380>, <rdkit.Chem.rdchem.Mol object at 0x7fdd1486ce40>, <rdkit.Chem.rdchem.Mol object at 0x7fdd1486c3c0>, '.', <rdkit.Chem.rdchem.Mol object at 0x7fdd14886110>, <rdkit.Chem.rdchem.Mol object at 0x7fdd14885c40>, <rdkit.Chem.rdchem.Mol object at 0x7fdd14886490>, <rdkit.Chem.rdchem.Mol object at 0x7fdd1486cba0>]","[0, 0, 0, 0, 0, 0, 0, 0, 1703, 1704, 1705, 1706, 1, 1707, 1708, 1709, 1710]"
PTzBI,ITIC,-5.34,-3.46,-5.574146341463415,-3.915,1.0,CB,DBE,130.0,PEDOT:PSS,PFN-Br,10.24,10.24,0.87,64.34,"[<rdkit.Chem.rdchem.Mol object at 0x7fdd14886f80>, <rdkit.Chem.rdchem.Mol object at 0x7fdd14887920>, <rdkit.Chem.rdchem.Mol object at 0x7fdd1486c740>, <rdkit.Chem.rdchem.Mol object at 0x7fdd1486c580>, <rdkit.Chem.rdchem.Mol object at 0x7fdd1486c9e0>, <rdkit.Chem.rdchem.Mol object at 0x7fdd1486d2a0>]","[<rdkit.Chem.rdchem.Mol object at 0x7fdd1486d8c0>, <rdkit.Chem.rdchem.Mol object at 0x7fdd1486d380>, <rdkit.Chem.rdchem.Mol object at 0x7fdd1486d4d0>, <rdkit.Chem.rdchem.Mol object at 0x7fdd1486d460>, <rdkit.Chem.rdchem.Mol object at 0x7fdd1486c200>]","[<rdkit.Chem.rdchem.Mol object at 0x7fdd14886f80>, <rdkit.Chem.rdchem.Mol object at 0x7fdd14887920>, <rdkit.Chem.rdchem.Mol object at 0x7fdd1486c740>, <rdkit.Chem.rdchem.Mol object at 0x7fdd1486c580>, <rdkit.Chem.rdchem.Mol object at 0x7fdd1486c9e0>, <rdkit.Chem.rdchem.Mol object at 0x7fdd1486d2a0>, '.', <rdkit.Chem.rdchem.Mol object at 0x7fdd1486d8c0>, <rdkit.Chem.rdchem.Mol object at 0x7fdd1486d380>, <rdkit.Chem.rdchem.Mol object at 0x7fdd1486d4d0>, <rdkit.Chem.rdchem.Mol object at 0x7fdd1486d460>, <rdkit.Chem.rdchem.Mol object at 0x7fdd1486c200>]","[0, 0, 0, 0, 0, 1711, 1712, 1713, 1714, 1715, 1716, 1, 1717, 1718, 1719, 1720, 1721]"
P3HT,NAI-FN-NAI(HD),-5.057777777777777,-2.989444444444445,-6.06,-3.98,1.0,CB,_,25.0,PEDOT:PSS,LiF,2.8,2.86,0.88,43.0,"[<rdkit.Chem.rdchem.Mol object at 0x7fdd148866c0>, <rdkit.Chem.rdchem.Mol object at 0x7fdd148874c0>, <rdkit.Chem.rdchem.Mol object at 0x7fdd1486c900>, <rdkit.Chem.rdchem.Mol object at 0x7fdd1486da80>]","[<rdkit.Chem.rdchem.Mol object at 0x7fdd14887ca0>, <rdkit.Chem.rdchem.Mol object at 0x7fdd1486c660>, <rdkit.Chem.rdchem.Mol object at 0x7fdd1486cf20>, <rdkit.Chem.rdchem.Mol object at 0x7fdd1486d540>]","[<rdkit.Chem.rdchem.Mol object at 0x7fdd148866c0>, <rdkit.Chem.rdchem.Mol object at 0x7fdd148874c0>, <rdkit.Chem.rdchem.Mol object at 0x7fdd1486c900>, <rdkit.Chem.rdchem.Mol object at 0x7fdd1486da80>, '.', <rdkit.Chem.rdchem.Mol object at 0x7fdd14887ca0>, <rdkit.Chem.rdchem.Mol object at 0x7fdd1486c660>, <rdkit.Chem.rdchem.Mol object at 0x7fdd1486cf20>, <rdkit.Chem.rdchem.Mol object at 0x7fdd1486d540>]","[0, 0, 0, 0, 0, 0, 0, 0, 1722, 1723, 1724, 1725, 1, 1726, 1727, 1728, 1729]"
P3HT,NAI-FCN-NAI(BO),-5.057777777777777,-2.989444444444445,-6.14,-4.21,1.0,CB,_,25.0,PEDOT:PSS,LiF,0.8,0.74,0.58,39.0,"[<rdkit.Chem.rdchem.Mol object at 0x7fdd1486d700>, <rdkit.Chem.rdchem.Mol object at 0x7fdd1486cb30>, <rdkit.Chem.rdchem.Mol object at 0x7fdd1486da10>, <rdkit.Chem.rdchem.Mol object at 0x7fdd1486c190>]","[<rdkit.Chem.rdchem.Mol object at 0x7fdd1486cc10>, <rdkit.Chem.rdchem.Mol object at 0x7fdd1486d7e0>, <rdkit.Chem.rdchem.Mol object at 0x7fdd1486ceb0>, <rdkit.Chem.rdchem.Mol object at 0x7fdd1486c350>, <rdkit.Chem.rdchem.Mol object at 0x7fdd1486d850>]","[<rdkit.Chem.rdchem.Mol object at 0x7fdd1486d700>, <rdkit.Chem.rdchem.Mol object at 0x7fdd1486cb30>, <rdkit.Chem.rdchem.Mol object at 0x7fdd1486da10>, <rdkit.Chem.rdchem.Mol object at 0x7fdd1486c190>, '.', <rdkit.Chem.rdchem.Mol object at 0x7fdd1486cc10>, <rdkit.Chem.rdchem.Mol object at 0x7fdd1486d7e0>, <rdkit.Chem.rdchem.Mol object at 0x7fdd1486ceb0>, <rdkit.Chem.rdchem.Mol object at 0x7fdd1486c350>, <rdkit.Chem.rdchem.Mol object at 0x7fdd1486d850>]","[0, 0, 0, 0, 0, 0, 0, 1730, 1731, 1732, 1733, 1, 1734, 1735, 1736, 1737, 1738]"
FTAZ,INIC,-5.43,-3.3200000000000003,-5.45,-3.88,0.667,CF,DIO,25.0,MoOx,ZnO,7.7,7.49,0.957,57.9,"[<rdkit.Chem.rdchem.Mol object at 0x7fdd1486d070>, <rdkit.Chem.rdchem.Mol object at 0x7fdd1486ccf0>, <rdkit.Chem.rdchem.Mol object at 0x7fdd1486c890>, <rdkit.Chem.rdchem.Mol object at 0x7fdd1486c5f0>, <rdkit.Chem.rdchem.Mol object at 0x7fdd1486d150>, <rdkit.Chem.rdchem.Mol object at 0x7fdd1486cac0>]","[<rdkit.Chem.rdchem.Mol object at 0x7fdd1486c4a0>, <rdkit.Chem.rdchem.Mol object at 0x7fdd1486d310>, <rdkit.Chem.rdchem.Mol object at 0x7fdd1486d1c0>, <rdkit.Chem.rdchem.Mol object at 0x7fdd1486daf0>, <rdkit.Chem.rdchem.Mol object at 0x7fdd1486db60>]","[<rdkit.Chem.rdchem.Mol object at 0x7fdd1486d070>, <rdkit.Chem.rdchem.Mol object at 0x7fdd1486ccf0>, <rdkit.Chem.rdchem.Mol object at 0x7fdd1486c890>, <rdkit.Chem.rdchem.Mol object at 0x7fdd1486c5f0>, <rdkit.Chem.rdchem.Mol object at 0x7fdd1486d150>, <rdkit.Chem.rdchem.Mol object at 0x7fdd1486cac0>, '.', <rdkit.Chem.rdchem.Mol object at 0x7fdd1486c4a0>, <rdkit.Chem.rdchem.Mol object at 0x7fdd1486d310>, <rdkit.Chem.rdchem.Mol object at 0x7fdd1486d1c0>, <rdkit.Chem.rdchem.Mol object at 0x7fdd1486daf0>, <rdkit.Chem.rdchem.Mol object at 0x7fdd1486db60>]","[0, 0, 0, 0, 0, 1739, 1740, 1741, 1742, 1743, 1744, 1, 1745, 1746, 1747, 1748, 1749]"
FTAZ,INIC1,-5.43,-3.3200000000000003,-5.54,-3.97,0.667,CF,DIO,25.0,MoOx,ZnO,10.1,9.93,0.929,64.3,"[<rdkit.Chem.rdchem.Mol object at 0x7fdd1486df50>, <rdkit.Chem.rdchem.Mol object at 0x7fdd1486c7b0>, <rdkit.Chem.rdchem.Mol object at 0x7fdd1486e030>, <rdkit.Chem.rdchem.Mol object at 0x7fdd1486d5b0>, <rdkit.Chem.rdchem.Mol object at 0x7fdd1486d620>, <rdkit.Chem.rdchem.Mol object at 0x7fdd1486d930>]","[<rdkit.Chem.rdchem.Mol object at 0x7fdd1486c430>, <rdkit.Chem.rdchem.Mol object at 0x7fdd1486de70>, <rdkit.Chem.rdchem.Mol object at 0x7fdd1486dee0>, <rdkit.Chem.rdchem.Mol object at 0x7fdd1486cd60>, <rdkit.Chem.rdchem.Mol object at 0x7fdd1486e180>]","[<rdkit.Chem.rdchem.Mol object at 0x7fdd1486df50>, <rdkit.Chem.rdchem.Mol object at 0x7fdd1486c7b0>, <rdkit.Chem.rdchem.Mol object at 0x7fdd1486e030>, <rdkit.Chem.rdchem.Mol object at 0x7fdd1486d5b0>, <rdkit.Chem.rdchem.Mol object at 0x7fdd1486d620>, <rdkit.Chem.rdchem.Mol object at 0x7fdd1486d930>, '.', <rdkit.Chem.rdchem.Mol object at 0x7fdd1486c430>, <rdkit.Chem.rdchem.Mol object at 0x7fdd1486de70>, <rdkit.Chem.rdchem.Mol object at 0x7fdd1486dee0>, <rdkit.Chem.rdchem.Mol object at 0x7fdd1486cd60>, <rdkit.Chem.rdchem.Mol object at 0x7fdd1486e180>]","[0, 0, 0, 0, 0, 1750, 1751, 1752, 1753, 1754, 1755, 1, 1756, 1757, 1758, 1759, 1760]"
FTAZ,INIC2,-5.43,-3.3200000000000003,-5.52,-3.98,0.667,CF,DIO,25.0,MoOx,ZnO,10.8,10.59,0.903,66.8,"[<rdkit.Chem.rdchem.Mol object at 0x7fdd1486e420>, <rdkit.Chem.rdchem.Mol object at 0x7fdd1486de00>, <rdkit.Chem.rdchem.Mol object at 0x7fdd1486e500>, <rdkit.Chem.rdchem.Mol object at 0x7fdd1486e110>, <rdkit.Chem.rdchem.Mol object at 0x7fdd1486d770>, <rdkit.Chem.rdchem.Mol object at 0x7fdd1486d230>]","[<rdkit.Chem.rdchem.Mol object at 0x7fdd1486dcb0>, <rdkit.Chem.rdchem.Mol object at 0x7fdd1486e340>, <rdkit.Chem.rdchem.Mol object at 0x7fdd1486e3b0>, <rdkit.Chem.rdchem.Mol object at 0x7fdd1486dfc0>, <rdkit.Chem.rdchem.Mol object at 0x7fdd1486e650>]","[<rdkit.Chem.rdchem.Mol object at 0x7fdd1486e420>, <rdkit.Chem.rdchem.Mol object at 0x7fdd1486de00>, <rdkit.Chem.rdchem.Mol object at 0x7fdd1486e500>, <rdkit.Chem.rdchem.Mol object at 0x7fdd1486e110>, <rdkit.Chem.rdchem.Mol object at 0x7fdd1486d770>, <rdkit.Chem.rdchem.Mol object at 0x7fdd1486d230>, '.', <rdkit.Chem.rdchem.Mol object at 0x7fdd1486dcb0>, <rdkit.Chem.rdchem.Mol object at 0x7fdd1486e340>, <rdkit.Chem.rdchem.Mol object at 0x7fdd1486e3b0>, <rdkit.Chem.rdchem.Mol object at 0x7fdd1486dfc0>, <rdkit.Chem.rdchem.Mol object at 0x7fdd1486e650>]","[0, 0, 0, 0, 0, 1761, 1762, 1763, 1764, 1765, 1766, 1, 1767, 1768, 1769, 1770, 1771]"
FTAZ,INIC3,-5.43,-3.3200000000000003,-5.52,-4.02,0.667,CF,DIO,25.0,MoOx,ZnO,11.5,11.23,0.857,67.4,"[<rdkit.Chem.rdchem.Mol object at 0x7fdd1486e8f0>, <rdkit.Chem.rdchem.Mol object at 0x7fdd1486e2d0>, <rdkit.Chem.rdchem.Mol object at 0x7fdd1486e9d0>, <rdkit.Chem.rdchem.Mol object at 0x7fdd1486e5e0>, <rdkit.Chem.rdchem.Mol object at 0x7fdd1486c270>, <rdkit.Chem.rdchem.Mol object at 0x7fdd1486e0a0>]","[<rdkit.Chem.rdchem.Mol object at 0x7fdd1486e1f0>, <rdkit.Chem.rdchem.Mol object at 0x7fdd1486e810>, <rdkit.Chem.rdchem.Mol object at 0x7fdd1486e880>, <rdkit.Chem.rdchem.Mol object at 0x7fdd1486e490>, <rdkit.Chem.rdchem.Mol object at 0x7fdd1486eb20>]","[<rdkit.Chem.rdchem.Mol object at 0x7fdd1486e8f0>, <rdkit.Chem.rdchem.Mol object at 0x7fdd1486e2d0>, <rdkit.Chem.rdchem.Mol object at 0x7fdd1486e9d0>, <rdkit.Chem.rdchem.Mol object at 0x7fdd1486e5e0>, <rdkit.Chem.rdchem.Mol object at 0x7fdd1486c270>, <rdkit.Chem.rdchem.Mol object at 0x7fdd1486e0a0>, '.', <rdkit.Chem.rdchem.Mol object at 0x7fdd1486e1f0>, <rdkit.Chem.rdchem.Mol object at 0x7fdd1486e810>, <rdkit.Chem.rdchem.Mol object at 0x7fdd1486e880>, <rdkit.Chem.rdchem.Mol object at 0x7fdd1486e490>, <rdkit.Chem.rdchem.Mol object at 0x7fdd1486eb20>]","[0, 0, 0, 0, 0, 1772, 1773, 1774, 1775, 1776, 1777, 1, 1778, 1779, 1780, 1781, 1782]"
PTB7-Th,F6IC,-5.204782608695651,-3.5391891891891896,-5.66,-4.02,0.588,CF,DPE,25.0,MoOx,ZnO,7.1,7.07,0.611,64.0,"[<rdkit.Chem.rdchem.Mol object at 0x7fdd1486eea0>, <rdkit.Chem.rdchem.Mol object at 0x7fdd1486ec70>, <rdkit.Chem.rdchem.Mol object at 0x7fdd1486ed50>, <rdkit.Chem.rdchem.Mol object at 0x7fdd1486ece0>, <rdkit.Chem.rdchem.Mol object at 0x7fdd1486d9a0>, <rdkit.Chem.rdchem.Mol object at 0x7fdd1486eb90>, <rdkit.Chem.rdchem.Mol object at 0x7fdd1486dd90>]","[<rdkit.Chem.rdchem.Mol object at 0x7fdd1486c0b0>, <rdkit.Chem.rdchem.Mol object at 0x7fdd1486edc0>, <rdkit.Chem.rdchem.Mol object at 0x7fdd1486dc40>, <rdkit.Chem.rdchem.Mol object at 0x7fdd1486e960>, <rdkit.Chem.rdchem.Mol object at 0x7fdd1486f060>]","[<rdkit.Chem.rdchem.Mol object at 0x7fdd1486eea0>, <rdkit.Chem.rdchem.Mol object at 0x7fdd1486ec70>, <rdkit.Chem.rdchem.Mol object at 0x7fdd1486ed50>, <rdkit.Chem.rdchem.Mol object at 0x7fdd1486ece0>, <rdkit.Chem.rdchem.Mol object at 0x7fdd1486d9a0>, <rdkit.Chem.rdchem.Mol object at 0x7fdd1486eb90>, <rdkit.Chem.rdchem.Mol object at 0x7fdd1486dd90>, '.', <rdkit.Chem.rdchem.Mol object at 0x7fdd1486c0b0>, <rdkit.Chem.rdchem.Mol object at 0x7fdd1486edc0>, <rdkit.Chem.rdchem.Mol object at 0x7fdd1486dc40>, <rdkit.Chem.rdchem.Mol object at 0x7fdd1486e960>, <rdkit.Chem.rdchem.Mol object at 0x7fdd1486f060>]","[0, 0, 0, 0, 1783, 1784, 1785, 1786, 1787, 1788, 1789, 1, 1790, 1791, 1792, 1793, 1794]"