Donor,Acceptor,HOMO_D_eV,LUMO_D_eV,HOMO_A_eV,LUMO_A_eV,D_A_ratio_m_m,solvent,solvent_additive,annealing_temperature,hole_contact_layer,electron_contact_layer,PCE_percent,calc_PCE_percent,Voc_V,FF_percent,Donor_BRICS,Acceptor_BRICS,DA_pair_BRICS,DA_tokenized_BRICS
PBDB-T,IF-TN,-5.297714285714285,-3.4170000000000003,-5.8,-3.93,1.0,CB,CN,80.0,PEDOT:PSS,PNDIT-F3N-Br,2.89,2.89,1.006,40.95,"[<rdkit.Chem.rdchem.Mol object at 0x7fdd147b2650>, <rdkit.Chem.rdchem.Mol object at 0x7fdd147b8c80>, <rdkit.Chem.rdchem.Mol object at 0x7fdd147b8740>, <rdkit.Chem.rdchem.Mol object at 0x7fdd147b8820>, <rdkit.Chem.rdchem.Mol object at 0x7fdd147b9460>]","[<rdkit.Chem.rdchem.Mol object at 0x7fdd147b2c70>, <rdkit.Chem.rdchem.Mol object at 0x7fdd147b9690>, <rdkit.Chem.rdchem.Mol object at 0x7fdd147b2ea0>, <rdkit.Chem.rdchem.Mol object at 0x7fdd147b34c0>, <rdkit.Chem.rdchem.Mol object at 0x7fdd147b2730>, <rdkit.Chem.rdchem.Mol object at 0x7fdd147b8040>]","[<rdkit.Chem.rdchem.Mol object at 0x7fdd147b2650>, <rdkit.Chem.rdchem.Mol object at 0x7fdd147b8c80>, <rdkit.Chem.rdchem.Mol object at 0x7fdd147b8740>, <rdkit.Chem.rdchem.Mol object at 0x7fdd147b8820>, <rdkit.Chem.rdchem.Mol object at 0x7fdd147b9460>, '.', <rdkit.Chem.rdchem.Mol object at 0x7fdd147b2c70>, <rdkit.Chem.rdchem.Mol object at 0x7fdd147b9690>, <rdkit.Chem.rdchem.Mol object at 0x7fdd147b2ea0>, <rdkit.Chem.rdchem.Mol object at 0x7fdd147b34c0>, <rdkit.Chem.rdchem.Mol object at 0x7fdd147b2730>, <rdkit.Chem.rdchem.Mol object at 0x7fdd147b8040>]","[0, 0, 0, 0, 0, 5282, 5283, 5284, 5285, 5286, 1, 5287, 5288, 5289, 5290, 5291, 5292]"
PBDB-T,IDT-TN,-5.297714285714285,-3.4170000000000003,-5.42,-4.03,1.0,CB,CN,80.0,PEDOT:PSS,PNDIT-F3N-Br,5.77,5.77,0.967,45.17,"[<rdkit.Chem.rdchem.Mol object at 0x7fdd147b3a00>, <rdkit.Chem.rdchem.Mol object at 0x7fdd147b87b0>, <rdkit.Chem.rdchem.Mol object at 0x7fdd147b8b30>, <rdkit.Chem.rdchem.Mol object at 0x7fdd147b8d60>, <rdkit.Chem.rdchem.Mol object at 0x7fdd147b99a0>]","[<rdkit.Chem.rdchem.Mol object at 0x7fdd147b3d80>, <rdkit.Chem.rdchem.Mol object at 0x7fdd147b89e0>, <rdkit.Chem.rdchem.Mol object at 0x7fdd147b3760>, <rdkit.Chem.rdchem.Mol object at 0x7fdd147b9850>, <rdkit.Chem.rdchem.Mol object at 0x7fdd147b9540>, <rdkit.Chem.rdchem.Mol object at 0x7fdd147b8ba0>]","[<rdkit.Chem.rdchem.Mol object at 0x7fdd147b3a00>, <rdkit.Chem.rdchem.Mol object at 0x7fdd147b87b0>, <rdkit.Chem.rdchem.Mol object at 0x7fdd147b8b30>, <rdkit.Chem.rdchem.Mol object at 0x7fdd147b8d60>, <rdkit.Chem.rdchem.Mol object at 0x7fdd147b99a0>, '.', <rdkit.Chem.rdchem.Mol object at 0x7fdd147b3d80>, <rdkit.Chem.rdchem.Mol object at 0x7fdd147b89e0>, <rdkit.Chem.rdchem.Mol object at 0x7fdd147b3760>, <rdkit.Chem.rdchem.Mol object at 0x7fdd147b9850>, <rdkit.Chem.rdchem.Mol object at 0x7fdd147b9540>, <rdkit.Chem.rdchem.Mol object at 0x7fdd147b8ba0>]","[0, 0, 0, 0, 0, 5293, 5294, 5295, 5296, 5297, 1, 5298, 5299, 5300, 5301, 5302, 5303]"
PBDB-T,IT-M,-5.297714285714285,-3.4170000000000003,-5.513571428571429,-3.808,1.0,CB,DIO,25.0,PEDOT:PSS,PDINO,10.31,10.36,0.93,66.77,"[<rdkit.Chem.rdchem.Mol object at 0x7fdd147b0f90>, <rdkit.Chem.rdchem.Mol object at 0x7fdd147b83c0>, <rdkit.Chem.rdchem.Mol object at 0x7fdd147b90e0>, <rdkit.Chem.rdchem.Mol object at 0x7fdd147b92a0>, <rdkit.Chem.rdchem.Mol object at 0x7fdd147b9ee0>]","[<rdkit.Chem.rdchem.Mol object at 0x7fdd147b9f50>, <rdkit.Chem.rdchem.Mol object at 0x7fdd147b8970>, <rdkit.Chem.rdchem.Mol object at 0x7fdd147b8e40>, <rdkit.Chem.rdchem.Mol object at 0x7fdd147b9a80>, <rdkit.Chem.rdchem.Mol object at 0x7fdd147b9000>]","[<rdkit.Chem.rdchem.Mol object at 0x7fdd147b0f90>, <rdkit.Chem.rdchem.Mol object at 0x7fdd147b83c0>, <rdkit.Chem.rdchem.Mol object at 0x7fdd147b90e0>, <rdkit.Chem.rdchem.Mol object at 0x7fdd147b92a0>, <rdkit.Chem.rdchem.Mol object at 0x7fdd147b9ee0>, '.', <rdkit.Chem.rdchem.Mol object at 0x7fdd147b9f50>, <rdkit.Chem.rdchem.Mol object at 0x7fdd147b8970>, <rdkit.Chem.rdchem.Mol object at 0x7fdd147b8e40>, <rdkit.Chem.rdchem.Mol object at 0x7fdd147b9a80>, <rdkit.Chem.rdchem.Mol object at 0x7fdd147b9000>]","[0, 0, 0, 0, 0, 0, 5304, 5305, 5306, 5307, 5308, 1, 5309, 5310, 5311, 5312, 5313]"
PBDB-T,ITIC-Cl4,-5.297714285714285,-3.4170000000000003,-5.5,-3.9,1.0,o-DCB,CN,25.0,MoOx,ZnO,9.6,9.55,0.74,60.0,"[<rdkit.Chem.rdchem.Mol object at 0x7fdd147b3920>, <rdkit.Chem.rdchem.Mol object at 0x7fdd147ba1f0>, <rdkit.Chem.rdchem.Mol object at 0x7fdd147ba110>, <rdkit.Chem.rdchem.Mol object at 0x7fdd147b8580>, <rdkit.Chem.rdchem.Mol object at 0x7fdd147ba3b0>]","[<rdkit.Chem.rdchem.Mol object at 0x7fdd147ba500>, <rdkit.Chem.rdchem.Mol object at 0x7fdd147b9c40>, <rdkit.Chem.rdchem.Mol object at 0x7fdd147b9700>, <rdkit.Chem.rdchem.Mol object at 0x7fdd147ba180>, <rdkit.Chem.rdchem.Mol object at 0x7fdd147b9d20>]","[<rdkit.Chem.rdchem.Mol object at 0x7fdd147b3920>, <rdkit.Chem.rdchem.Mol object at 0x7fdd147ba1f0>, <rdkit.Chem.rdchem.Mol object at 0x7fdd147ba110>, <rdkit.Chem.rdchem.Mol object at 0x7fdd147b8580>, <rdkit.Chem.rdchem.Mol object at 0x7fdd147ba3b0>, '.', <rdkit.Chem.rdchem.Mol object at 0x7fdd147ba500>, <rdkit.Chem.rdchem.Mol object at 0x7fdd147b9c40>, <rdkit.Chem.rdchem.Mol object at 0x7fdd147b9700>, <rdkit.Chem.rdchem.Mol object at 0x7fdd147ba180>, <rdkit.Chem.rdchem.Mol object at 0x7fdd147b9d20>]","[0, 0, 0, 0, 0, 0, 5314, 5315, 5316, 5317, 5318, 1, 5319, 5320, 5321, 5322, 5323]"
PBDTS-TzBI,ITIC,-5.39,-3.52,-5.574146341463415,-3.915,1.0,CB,_,130.0,PEDOT:PSS,PFN-Br,9.04,8.88,0.94,56.2,"[<rdkit.Chem.rdchem.Mol object at 0x7fdd147b3530>, <rdkit.Chem.rdchem.Mol object at 0x7fdd147b9d90>, <rdkit.Chem.rdchem.Mol object at 0x7fdd147b95b0>, <rdkit.Chem.rdchem.Mol object at 0x7fdd147b84a0>, <rdkit.Chem.rdchem.Mol object at 0x7fdd147b9b60>, <rdkit.Chem.rdchem.Mol object at 0x7fdd147b9af0>, <rdkit.Chem.rdchem.Mol object at 0x7fdd147b86d0>, <rdkit.Chem.rdchem.Mol object at 0x7fdd147b9bd0>]","[<rdkit.Chem.rdchem.Mol object at 0x7fdd147b8200>, <rdkit.Chem.rdchem.Mol object at 0x7fdd147ba5e0>, <rdkit.Chem.rdchem.Mol object at 0x7fdd147b9930>, <rdkit.Chem.rdchem.Mol object at 0x7fdd147b8a50>, <rdkit.Chem.rdchem.Mol object at 0x7fdd147ba030>]","[<rdkit.Chem.rdchem.Mol object at 0x7fdd147b3530>, <rdkit.Chem.rdchem.Mol object at 0x7fdd147b9d90>, <rdkit.Chem.rdchem.Mol object at 0x7fdd147b95b0>, <rdkit.Chem.rdchem.Mol object at 0x7fdd147b84a0>, <rdkit.Chem.rdchem.Mol object at 0x7fdd147b9b60>, <rdkit.Chem.rdchem.Mol object at 0x7fdd147b9af0>, <rdkit.Chem.rdchem.Mol object at 0x7fdd147b86d0>, <rdkit.Chem.rdchem.Mol object at 0x7fdd147b9bd0>, '.', <rdkit.Chem.rdchem.Mol object at 0x7fdd147b8200>, <rdkit.Chem.rdchem.Mol object at 0x7fdd147ba5e0>, <rdkit.Chem.rdchem.Mol object at 0x7fdd147b9930>, <rdkit.Chem.rdchem.Mol object at 0x7fdd147b8a50>, <rdkit.Chem.rdchem.Mol object at 0x7fdd147ba030>]","[0, 0, 0, 5324, 5325, 5326, 5327, 5328, 5329, 5330, 5331, 1, 5332, 5333, 5334, 5335, 5336]"
PBDTS-TzBI,ITIC-Th,-5.39,-3.52,-5.673333333333334,-3.908888888888889,1.0,CB,_,130.0,PEDOT:PSS,PFN-Br,9.67,9.54,0.91,60.44,"[<rdkit.Chem.rdchem.Mol object at 0x7fdd147b1e70>, <rdkit.Chem.rdchem.Mol object at 0x7fdd147b80b0>, <rdkit.Chem.rdchem.Mol object at 0x7fdd147b8ac0>, <rdkit.Chem.rdchem.Mol object at 0x7fdd147b9a10>, <rdkit.Chem.rdchem.Mol object at 0x7fdd147ba420>, <rdkit.Chem.rdchem.Mol object at 0x7fdd147ba880>, <rdkit.Chem.rdchem.Mol object at 0x7fdd147b93f0>, <rdkit.Chem.rdchem.Mol object at 0x7fdd147b9e00>]","[<rdkit.Chem.rdchem.Mol object at 0x7fdd147bab20>, <rdkit.Chem.rdchem.Mol object at 0x7fdd147ba2d0>, <rdkit.Chem.rdchem.Mol object at 0x7fdd147b9fc0>, <rdkit.Chem.rdchem.Mol object at 0x7fdd147ba260>, <rdkit.Chem.rdchem.Mol object at 0x7fdd147b9e70>]","[<rdkit.Chem.rdchem.Mol object at 0x7fdd147b1e70>, <rdkit.Chem.rdchem.Mol object at 0x7fdd147b80b0>, <rdkit.Chem.rdchem.Mol object at 0x7fdd147b8ac0>, <rdkit.Chem.rdchem.Mol object at 0x7fdd147b9a10>, <rdkit.Chem.rdchem.Mol object at 0x7fdd147ba420>, <rdkit.Chem.rdchem.Mol object at 0x7fdd147ba880>, <rdkit.Chem.rdchem.Mol object at 0x7fdd147b93f0>, <rdkit.Chem.rdchem.Mol object at 0x7fdd147b9e00>, '.', <rdkit.Chem.rdchem.Mol object at 0x7fdd147bab20>, <rdkit.Chem.rdchem.Mol object at 0x7fdd147ba2d0>, <rdkit.Chem.rdchem.Mol object at 0x7fdd147b9fc0>, <rdkit.Chem.rdchem.Mol object at 0x7fdd147ba260>, <rdkit.Chem.rdchem.Mol object at 0x7fdd147b9e70>]","[0, 0, 0, 5337, 5338, 5339, 5340, 5341, 5342, 5343, 5344, 1, 5345, 5346, 5347, 5348, 5349]"
PBDB-T,NFBDT-Me,-5.297714285714285,-3.4170000000000003,-5.4,-3.78,1.667,CF,_,25.0,PEDOT:PSS,PDIN,11.0,11.01,0.909,70.0,"[<rdkit.Chem.rdchem.Mol object at 0x7fdd147b85f0>, <rdkit.Chem.rdchem.Mol object at 0x7fdd147ba650>, <rdkit.Chem.rdchem.Mol object at 0x7fdd147baa40>, <rdkit.Chem.rdchem.Mol object at 0x7fdd147ba570>, <rdkit.Chem.rdchem.Mol object at 0x7fdd147bb4c0>]","[<rdkit.Chem.rdchem.Mol object at 0x7fdd147bb6f0>, <rdkit.Chem.rdchem.Mol object at 0x7fdd147b94d0>, <rdkit.Chem.rdchem.Mol object at 0x7fdd147ba810>, <rdkit.Chem.rdchem.Mol object at 0x7fdd147b8f90>, <rdkit.Chem.rdchem.Mol object at 0x7fdd147bace0>]","[<rdkit.Chem.rdchem.Mol object at 0x7fdd147b85f0>, <rdkit.Chem.rdchem.Mol object at 0x7fdd147ba650>, <rdkit.Chem.rdchem.Mol object at 0x7fdd147baa40>, <rdkit.Chem.rdchem.Mol object at 0x7fdd147ba570>, <rdkit.Chem.rdchem.Mol object at 0x7fdd147bb4c0>, '.', <rdkit.Chem.rdchem.Mol object at 0x7fdd147bb6f0>, <rdkit.Chem.rdchem.Mol object at 0x7fdd147b94d0>, <rdkit.Chem.rdchem.Mol object at 0x7fdd147ba810>, <rdkit.Chem.rdchem.Mol object at 0x7fdd147b8f90>, <rdkit.Chem.rdchem.Mol object at 0x7fdd147bace0>]","[0, 0, 0, 0, 0, 0, 5350, 5351, 5352, 5353, 5354, 1, 5355, 5356, 5357, 5358, 5359]"
PBDB-T,NFBDT-F,-5.297714285714285,-3.4170000000000003,-5.43,-3.88,1.0,CF,_,25.0,PEDOT:PSS,PDIN,10.62,10.63,0.793,69.5,"[<rdkit.Chem.rdchem.Mol object at 0x7fdd147ba340>, <rdkit.Chem.rdchem.Mol object at 0x7fdd147baff0>, <rdkit.Chem.rdchem.Mol object at 0x7fdd147bb060>, <rdkit.Chem.rdchem.Mol object at 0x7fdd147b91c0>, <rdkit.Chem.rdchem.Mol object at 0x7fdd147bb990>]","[<rdkit.Chem.rdchem.Mol object at 0x7fdd147bbbc0>, <rdkit.Chem.rdchem.Mol object at 0x7fdd147ba6c0>, <rdkit.Chem.rdchem.Mol object at 0x7fdd147bad50>, <rdkit.Chem.rdchem.Mol object at 0x7fdd147b9cb0>, <rdkit.Chem.rdchem.Mol object at 0x7fdd147bb530>]","[<rdkit.Chem.rdchem.Mol object at 0x7fdd147ba340>, <rdkit.Chem.rdchem.Mol object at 0x7fdd147baff0>, <rdkit.Chem.rdchem.Mol object at 0x7fdd147bb060>, <rdkit.Chem.rdchem.Mol object at 0x7fdd147b91c0>, <rdkit.Chem.rdchem.Mol object at 0x7fdd147bb990>, '.', <rdkit.Chem.rdchem.Mol object at 0x7fdd147bbbc0>, <rdkit.Chem.rdchem.Mol object at 0x7fdd147ba6c0>, <rdkit.Chem.rdchem.Mol object at 0x7fdd147bad50>, <rdkit.Chem.rdchem.Mol object at 0x7fdd147b9cb0>, <rdkit.Chem.rdchem.Mol object at 0x7fdd147bb530>]","[0, 0, 0, 0, 0, 0, 5360, 5361, 5362, 5363, 5364, 1, 5365, 5366, 5367, 5368, 5369]"
PBDB-T,NFBDT,-5.297714285714285,-3.4170000000000003,-5.400000000000001,-3.83,1.25,CF,_,25.0,PEDOT:PSS,PDIN,10.42,10.46,0.872,67.2,"[<rdkit.Chem.rdchem.Mol object at 0x7fdd147baea0>, <rdkit.Chem.rdchem.Mol object at 0x7fdd147bb760>, <rdkit.Chem.rdchem.Mol object at 0x7fdd147bb1b0>, <rdkit.Chem.rdchem.Mol object at 0x7fdd147b8cf0>, <rdkit.Chem.rdchem.Mol object at 0x7fdd147ba730>]","[<rdkit.Chem.rdchem.Mol object at 0x7fdd147bb220>, <rdkit.Chem.rdchem.Mol object at 0x7fdd147b8510>, <rdkit.Chem.rdchem.Mol object at 0x7fdd147bac00>, <rdkit.Chem.rdchem.Mol object at 0x7fdd147b9620>, <rdkit.Chem.rdchem.Mol object at 0x7fdd147bba00>]","[<rdkit.Chem.rdchem.Mol object at 0x7fdd147baea0>, <rdkit.Chem.rdchem.Mol object at 0x7fdd147bb760>, <rdkit.Chem.rdchem.Mol object at 0x7fdd147bb1b0>, <rdkit.Chem.rdchem.Mol object at 0x7fdd147b8cf0>, <rdkit.Chem.rdchem.Mol object at 0x7fdd147ba730>, '.', <rdkit.Chem.rdchem.Mol object at 0x7fdd147bb220>, <rdkit.Chem.rdchem.Mol object at 0x7fdd147b8510>, <rdkit.Chem.rdchem.Mol object at 0x7fdd147bac00>, <rdkit.Chem.rdchem.Mol object at 0x7fdd147b9620>, <rdkit.Chem.rdchem.Mol object at 0x7fdd147bba00>]","[0, 0, 0, 0, 0, 0, 5370, 5371, 5372, 5373, 5374, 1, 5375, 5376, 5377, 5378, 5379]"
PBDB-T,IT-DM,-5.297714285714285,-3.4170000000000003,-5.515,-3.855,0.75,CB,_,160.0,PEDOT:PSS,PFN-Br,10.41,10.41,0.95,68.7,"[<rdkit.Chem.rdchem.Mol object at 0x7fdd147bb0d0>, <rdkit.Chem.rdchem.Mol object at 0x7fdd147bbc30>, <rdkit.Chem.rdchem.Mol object at 0x7fdd147bb3e0>, <rdkit.Chem.rdchem.Mol object at 0x7fdd147badc0>, <rdkit.Chem.rdchem.Mol object at 0x7fdd147c4270>]","[<rdkit.Chem.rdchem.Mol object at 0x7fdd147bbed0>, <rdkit.Chem.rdchem.Mol object at 0x7fdd147b8dd0>, <rdkit.Chem.rdchem.Mol object at 0x7fdd147bba70>, <rdkit.Chem.rdchem.Mol object at 0x7fdd147bbb50>, <rdkit.Chem.rdchem.Mol object at 0x7fdd147bb450>]","[<rdkit.Chem.rdchem.Mol object at 0x7fdd147bb0d0>, <rdkit.Chem.rdchem.Mol object at 0x7fdd147bbc30>, <rdkit.Chem.rdchem.Mol object at 0x7fdd147bb3e0>, <rdkit.Chem.rdchem.Mol object at 0x7fdd147badc0>, <rdkit.Chem.rdchem.Mol object at 0x7fdd147c4270>, '.', <rdkit.Chem.rdchem.Mol object at 0x7fdd147bbed0>, <rdkit.Chem.rdchem.Mol object at 0x7fdd147b8dd0>, <rdkit.Chem.rdchem.Mol object at 0x7fdd147bba70>, <rdkit.Chem.rdchem.Mol object at 0x7fdd147bbb50>, <rdkit.Chem.rdchem.Mol object at 0x7fdd147bb450>]","[0, 0, 0, 0, 0, 0, 5380, 5381, 5382, 5383, 5384, 1, 5385, 5386, 5387, 5388, 5389]"
PBDB-T,SN6IC,-5.297714285714285,-3.4170000000000003,-5.38,-3.93,1.0,CB,DIO,25.0,PEDOT:PSS,C60-bissalt,9.6,9.58,0.88,66.0,"[<rdkit.Chem.rdchem.Mol object at 0x7fdd147baf80>, <rdkit.Chem.rdchem.Mol object at 0x7fdd147bb840>, <rdkit.Chem.rdchem.Mol object at 0x7fdd147bb300>, <rdkit.Chem.rdchem.Mol object at 0x7fdd147bb370>, <rdkit.Chem.rdchem.Mol object at 0x7fdd147c4350>]","[<rdkit.Chem.rdchem.Mol object at 0x7fdd147bbca0>, <rdkit.Chem.rdchem.Mol object at 0x7fdd147bab90>, <rdkit.Chem.rdchem.Mol object at 0x7fdd147bb8b0>, <rdkit.Chem.rdchem.Mol object at 0x7fdd147bb680>, <rdkit.Chem.rdchem.Mol object at 0x7fdd147ba7a0>]","[<rdkit.Chem.rdchem.Mol object at 0x7fdd147baf80>, <rdkit.Chem.rdchem.Mol object at 0x7fdd147bb840>, <rdkit.Chem.rdchem.Mol object at 0x7fdd147bb300>, <rdkit.Chem.rdchem.Mol object at 0x7fdd147bb370>, <rdkit.Chem.rdchem.Mol object at 0x7fdd147c4350>, '.', <rdkit.Chem.rdchem.Mol object at 0x7fdd147bbca0>, <rdkit.Chem.rdchem.Mol object at 0x7fdd147bab90>, <rdkit.Chem.rdchem.Mol object at 0x7fdd147bb8b0>, <rdkit.Chem.rdchem.Mol object at 0x7fdd147bb680>, <rdkit.Chem.rdchem.Mol object at 0x7fdd147ba7a0>]","[0, 0, 0, 0, 0, 0, 5390, 5391, 5392, 5393, 5394, 1, 5395, 5396, 5397, 5398, 5399]"
PBDB-T,SN6IC-4F,-5.297714285714285,-3.4170000000000003,-5.52,-4.11,1.0,CB,DIO,25.0,PEDOT:PSS,C60-bissalt,13.2,13.21,0.78,73.0,"[<rdkit.Chem.rdchem.Mol object at 0x7fdd147bac70>, <rdkit.Chem.rdchem.Mol object at 0x7fdd147bbe60>, <rdkit.Chem.rdchem.Mol object at 0x7fdd147bbae0>, <rdkit.Chem.rdchem.Mol object at 0x7fdd147c4ac0>, <rdkit.Chem.rdchem.Mol object at 0x7fdd147c4dd0>]","[<rdkit.Chem.rdchem.Mol object at 0x7fdd147bb5a0>, <rdkit.Chem.rdchem.Mol object at 0x7fdd147baf10>, <rdkit.Chem.rdchem.Mol object at 0x7fdd147bb290>, <rdkit.Chem.rdchem.Mol object at 0x7fdd147b98c0>, <rdkit.Chem.rdchem.Mol object at 0x7fdd147b9150>]","[<rdkit.Chem.rdchem.Mol object at 0x7fdd147bac70>, <rdkit.Chem.rdchem.Mol object at 0x7fdd147bbe60>, <rdkit.Chem.rdchem.Mol object at 0x7fdd147bbae0>, <rdkit.Chem.rdchem.Mol object at 0x7fdd147c4ac0>, <rdkit.Chem.rdchem.Mol object at 0x7fdd147c4dd0>, '.', <rdkit.Chem.rdchem.Mol object at 0x7fdd147bb5a0>, <rdkit.Chem.rdchem.Mol object at 0x7fdd147baf10>, <rdkit.Chem.rdchem.Mol object at 0x7fdd147bb290>, <rdkit.Chem.rdchem.Mol object at 0x7fdd147b98c0>, <rdkit.Chem.rdchem.Mol object at 0x7fdd147b9150>]","[0, 0, 0, 0, 0, 0, 5400, 5401, 5402, 5403, 5404, 1, 5405, 5406, 5407, 5408, 5409]"
PTB7-Th,ITIC,-5.204782608695651,-3.5391891891891896,-5.574146341463415,-3.915,0.5,CB,_,25.0,MoOx,ZnO,7.8,7.84,0.825,66.0,"[<rdkit.Chem.rdchem.Mol object at 0x7fdd147bae30>, <rdkit.Chem.rdchem.Mol object at 0x7fdd147b9070>, <rdkit.Chem.rdchem.Mol object at 0x7fdd147bbf40>, <rdkit.Chem.rdchem.Mol object at 0x7fdd147bbd10>, <rdkit.Chem.rdchem.Mol object at 0x7fdd147ba490>, <rdkit.Chem.rdchem.Mol object at 0x7fdd147b8890>, <rdkit.Chem.rdchem.Mol object at 0x7fdd147c50e0>]","[<rdkit.Chem.rdchem.Mol object at 0x7fdd147baab0>, <rdkit.Chem.rdchem.Mol object at 0x7fdd147c4e40>, <rdkit.Chem.rdchem.Mol object at 0x7fdd147bb7d0>, <rdkit.Chem.rdchem.Mol object at 0x7fdd147c4ba0>, <rdkit.Chem.rdchem.Mol object at 0x7fdd147c40b0>]","[<rdkit.Chem.rdchem.Mol object at 0x7fdd147bae30>, <rdkit.Chem.rdchem.Mol object at 0x7fdd147b9070>, <rdkit.Chem.rdchem.Mol object at 0x7fdd147bbf40>, <rdkit.Chem.rdchem.Mol object at 0x7fdd147bbd10>, <rdkit.Chem.rdchem.Mol object at 0x7fdd147ba490>, <rdkit.Chem.rdchem.Mol object at 0x7fdd147b8890>, <rdkit.Chem.rdchem.Mol object at 0x7fdd147c50e0>, '.', <rdkit.Chem.rdchem.Mol object at 0x7fdd147baab0>, <rdkit.Chem.rdchem.Mol object at 0x7fdd147c4e40>, <rdkit.Chem.rdchem.Mol object at 0x7fdd147bb7d0>, <rdkit.Chem.rdchem.Mol object at 0x7fdd147c4ba0>, <rdkit.Chem.rdchem.Mol object at 0x7fdd147c40b0>]","[0, 0, 0, 0, 5410, 5411, 5412, 5413, 5414, 5415, 5416, 1, 5417, 5418, 5419, 5420, 5421]"
PTB7-Th,IDTT-T,-5.204782608695651,-3.5391891891891896,-5.51,-3.51,0.5,CB,_,25.0,MoOx,ZnO,9.1,9.08,1.015,57.0,"[<rdkit.Chem.rdchem.Mol object at 0x7fdd147bbdf0>, <rdkit.Chem.rdchem.Mol object at 0x7fdd147bb920>, <rdkit.Chem.rdchem.Mol object at 0x7fdd147b9310>, <rdkit.Chem.rdchem.Mol object at 0x7fdd147bb140>, <rdkit.Chem.rdchem.Mol object at 0x7fdd147c4510>, <rdkit.Chem.rdchem.Mol object at 0x7fdd147c42e0>, <rdkit.Chem.rdchem.Mol object at 0x7fdd147c4120>]","[<rdkit.Chem.rdchem.Mol object at 0x7fdd147c44a0>, <rdkit.Chem.rdchem.Mol object at 0x7fdd147c5070>, <rdkit.Chem.rdchem.Mol object at 0x7fdd147c4740>, <rdkit.Chem.rdchem.Mol object at 0x7fdd147c46d0>, <rdkit.Chem.rdchem.Mol object at 0x7fdd147c4eb0>]","[<rdkit.Chem.rdchem.Mol object at 0x7fdd147bbdf0>, <rdkit.Chem.rdchem.Mol object at 0x7fdd147bb920>, <rdkit.Chem.rdchem.Mol object at 0x7fdd147b9310>, <rdkit.Chem.rdchem.Mol object at 0x7fdd147bb140>, <rdkit.Chem.rdchem.Mol object at 0x7fdd147c4510>, <rdkit.Chem.rdchem.Mol object at 0x7fdd147c42e0>, <rdkit.Chem.rdchem.Mol object at 0x7fdd147c4120>, '.', <rdkit.Chem.rdchem.Mol object at 0x7fdd147c44a0>, <rdkit.Chem.rdchem.Mol object at 0x7fdd147c5070>, <rdkit.Chem.rdchem.Mol object at 0x7fdd147c4740>, <rdkit.Chem.rdchem.Mol object at 0x7fdd147c46d0>, <rdkit.Chem.rdchem.Mol object at 0x7fdd147c4eb0>]","[0, 0, 0, 0, 5422, 5423, 5424, 5425, 5426, 5427, 5428, 1, 5429, 5430, 5431, 5432, 5433]"
PBDB-T,IDT-IC,-5.297714285714285,-3.4170000000000003,-5.693333333333334,-3.866666666666666,1.0,DCB,_,25.0,MoOx,ZnO,4.69,4.29,0.83,49.0,"[<rdkit.Chem.rdchem.Mol object at 0x7fdd147b8eb0>, <rdkit.Chem.rdchem.Mol object at 0x7fdd147c4900>, <rdkit.Chem.rdchem.Mol object at 0x7fdd147c6490>, <rdkit.Chem.rdchem.Mol object at 0x7fdd147c5770>, <rdkit.Chem.rdchem.Mol object at 0x7fdd147c6730>]","[<rdkit.Chem.rdchem.Mol object at 0x7fdd147c6960>, <rdkit.Chem.rdchem.Mol object at 0x7fdd147c5850>, <rdkit.Chem.rdchem.Mol object at 0x7fdd147c5b60>, <rdkit.Chem.rdchem.Mol object at 0x7fdd147c59a0>, <rdkit.Chem.rdchem.Mol object at 0x7fdd147c4f90>]","[<rdkit.Chem.rdchem.Mol object at 0x7fdd147b8eb0>, <rdkit.Chem.rdchem.Mol object at 0x7fdd147c4900>, <rdkit.Chem.rdchem.Mol object at 0x7fdd147c6490>, <rdkit.Chem.rdchem.Mol object at 0x7fdd147c5770>, <rdkit.Chem.rdchem.Mol object at 0x7fdd147c6730>, '.', <rdkit.Chem.rdchem.Mol object at 0x7fdd147c6960>, <rdkit.Chem.rdchem.Mol object at 0x7fdd147c5850>, <rdkit.Chem.rdchem.Mol object at 0x7fdd147c5b60>, <rdkit.Chem.rdchem.Mol object at 0x7fdd147c59a0>, <rdkit.Chem.rdchem.Mol object at 0x7fdd147c4f90>]","[0, 0, 0, 0, 0, 0, 5454, 5455, 5456, 5457, 5458, 1, 5459, 5460, 5461, 5462, 5463]"