Donor,Acceptor,HOMO_D_eV,LUMO_D_eV,HOMO_A_eV,LUMO_A_eV,D_A_ratio_m_m,solvent,solvent_additive,annealing_temperature,hole_contact_layer,electron_contact_layer,PCE_percent,calc_PCE_percent,Voc_V,FF_percent,Donor_BRICS,Acceptor_BRICS,DA_pair_BRICS,DA_tokenized_BRICS
PJ2,IDIC,-5.14,-3.33,-5.706,-4.002666666666667,0.667,CF,DIO,130.0,PEDOT:PSS,PDINO,12.01,12.02,0.939,75.3,"[<rdkit.Chem.rdchem.Mol object at 0x7fdd147d0b30>, <rdkit.Chem.rdchem.Mol object at 0x7fdd147d2650>, <rdkit.Chem.rdchem.Mol object at 0x7fdd147d2810>, <rdkit.Chem.rdchem.Mol object at 0x7fdd147d29d0>, <rdkit.Chem.rdchem.Mol object at 0x7fdd147d0ac0>, <rdkit.Chem.rdchem.Mol object at 0x7fdd147d3220>]","[<rdkit.Chem.rdchem.Mol object at 0x7fdd147d2420>, <rdkit.Chem.rdchem.Mol object at 0x7fdd147d0820>, <rdkit.Chem.rdchem.Mol object at 0x7fdd147d2c00>, <rdkit.Chem.rdchem.Mol object at 0x7fdd147d26c0>]","[<rdkit.Chem.rdchem.Mol object at 0x7fdd147d0b30>, <rdkit.Chem.rdchem.Mol object at 0x7fdd147d2650>, <rdkit.Chem.rdchem.Mol object at 0x7fdd147d2810>, <rdkit.Chem.rdchem.Mol object at 0x7fdd147d29d0>, <rdkit.Chem.rdchem.Mol object at 0x7fdd147d0ac0>, <rdkit.Chem.rdchem.Mol object at 0x7fdd147d3220>, '.', <rdkit.Chem.rdchem.Mol object at 0x7fdd147d2420>, <rdkit.Chem.rdchem.Mol object at 0x7fdd147d0820>, <rdkit.Chem.rdchem.Mol object at 0x7fdd147d2c00>, <rdkit.Chem.rdchem.Mol object at 0x7fdd147d26c0>]","[0, 0, 0, 0, 0, 0, 5623, 5624, 5625, 5626, 5627, 5628, 1, 5629, 5630, 5631, 5632]"
PJ3,m-ITIC,-5.01,-3.26,-5.526666666666667,-3.8515384615384622,0.667,CF,DIO,130.0,PEDOT:PSS,PDINO,7.76,7.74,0.96,63.5,"[<rdkit.Chem.rdchem.Mol object at 0x7fdd147d2340>, <rdkit.Chem.rdchem.Mol object at 0x7fdd147d3060>, <rdkit.Chem.rdchem.Mol object at 0x7fdd147d2e30>, <rdkit.Chem.rdchem.Mol object at 0x7fdd147d1d90>, <rdkit.Chem.rdchem.Mol object at 0x7fdd147d2490>, <rdkit.Chem.rdchem.Mol object at 0x7fdd147d3290>]","[<rdkit.Chem.rdchem.Mol object at 0x7fdd147d1a10>, <rdkit.Chem.rdchem.Mol object at 0x7fdd147d0430>, <rdkit.Chem.rdchem.Mol object at 0x7fdd147d2dc0>, <rdkit.Chem.rdchem.Mol object at 0x7fdd147d11c0>, <rdkit.Chem.rdchem.Mol object at 0x7fdd147d0200>]","[<rdkit.Chem.rdchem.Mol object at 0x7fdd147d2340>, <rdkit.Chem.rdchem.Mol object at 0x7fdd147d3060>, <rdkit.Chem.rdchem.Mol object at 0x7fdd147d2e30>, <rdkit.Chem.rdchem.Mol object at 0x7fdd147d1d90>, <rdkit.Chem.rdchem.Mol object at 0x7fdd147d2490>, <rdkit.Chem.rdchem.Mol object at 0x7fdd147d3290>, '.', <rdkit.Chem.rdchem.Mol object at 0x7fdd147d1a10>, <rdkit.Chem.rdchem.Mol object at 0x7fdd147d0430>, <rdkit.Chem.rdchem.Mol object at 0x7fdd147d2dc0>, <rdkit.Chem.rdchem.Mol object at 0x7fdd147d11c0>, <rdkit.Chem.rdchem.Mol object at 0x7fdd147d0200>]","[0, 0, 0, 0, 0, 5633, 5634, 5635, 5636, 5637, 5638, 1, 5639, 5640, 5641, 5642, 5643]"
PJ3,IDIC,-5.01,-3.26,-5.706,-4.002666666666667,0.667,CF,DIO,130.0,PEDOT:PSS,PDINO,8.11,8.11,0.908,69.8,"[<rdkit.Chem.rdchem.Mol object at 0x7fdd147d31b0>, <rdkit.Chem.rdchem.Mol object at 0x7fdd147d0350>, <rdkit.Chem.rdchem.Mol object at 0x7fdd147d2f80>, <rdkit.Chem.rdchem.Mol object at 0x7fdd147d2f10>, <rdkit.Chem.rdchem.Mol object at 0x7fdd147d3140>, <rdkit.Chem.rdchem.Mol object at 0x7fdd147d35a0>]","[<rdkit.Chem.rdchem.Mol object at 0x7fdd147d36f0>, <rdkit.Chem.rdchem.Mol object at 0x7fdd147d1c40>, <rdkit.Chem.rdchem.Mol object at 0x7fdd147d06d0>, <rdkit.Chem.rdchem.Mol object at 0x7fdd147d30d0>]","[<rdkit.Chem.rdchem.Mol object at 0x7fdd147d31b0>, <rdkit.Chem.rdchem.Mol object at 0x7fdd147d0350>, <rdkit.Chem.rdchem.Mol object at 0x7fdd147d2f80>, <rdkit.Chem.rdchem.Mol object at 0x7fdd147d2f10>, <rdkit.Chem.rdchem.Mol object at 0x7fdd147d3140>, <rdkit.Chem.rdchem.Mol object at 0x7fdd147d35a0>, '.', <rdkit.Chem.rdchem.Mol object at 0x7fdd147d36f0>, <rdkit.Chem.rdchem.Mol object at 0x7fdd147d1c40>, <rdkit.Chem.rdchem.Mol object at 0x7fdd147d06d0>, <rdkit.Chem.rdchem.Mol object at 0x7fdd147d30d0>]","[0, 0, 0, 0, 0, 0, 5644, 5645, 5646, 5647, 5648, 5649, 1, 5650, 5651, 5652, 5653]"
2D-PBTCl,ITIC,-5.45,-3.6,-5.574146341463415,-3.915,1.0,CB,DIO,25.0,MoOx,ZnO,8.81,8.81,0.91,61.32,"[<rdkit.Chem.rdchem.Mol object at 0x7fdd147d2960>, <rdkit.Chem.rdchem.Mol object at 0x7fdd147d3760>, <rdkit.Chem.rdchem.Mol object at 0x7fdd147d2500>, <rdkit.Chem.rdchem.Mol object at 0x7fdd147d2c70>, <rdkit.Chem.rdchem.Mol object at 0x7fdd147d3300>, <rdkit.Chem.rdchem.Mol object at 0x7fdd147d2d50>, <rdkit.Chem.rdchem.Mol object at 0x7fdd147d3a70>]","[<rdkit.Chem.rdchem.Mol object at 0x7fdd147d3920>, <rdkit.Chem.rdchem.Mol object at 0x7fdd147d3450>, <rdkit.Chem.rdchem.Mol object at 0x7fdd147d33e0>, <rdkit.Chem.rdchem.Mol object at 0x7fdd147d2ea0>, <rdkit.Chem.rdchem.Mol object at 0x7fdd147d3d10>]","[<rdkit.Chem.rdchem.Mol object at 0x7fdd147d2960>, <rdkit.Chem.rdchem.Mol object at 0x7fdd147d3760>, <rdkit.Chem.rdchem.Mol object at 0x7fdd147d2500>, <rdkit.Chem.rdchem.Mol object at 0x7fdd147d2c70>, <rdkit.Chem.rdchem.Mol object at 0x7fdd147d3300>, <rdkit.Chem.rdchem.Mol object at 0x7fdd147d2d50>, <rdkit.Chem.rdchem.Mol object at 0x7fdd147d3a70>, '.', <rdkit.Chem.rdchem.Mol object at 0x7fdd147d3920>, <rdkit.Chem.rdchem.Mol object at 0x7fdd147d3450>, <rdkit.Chem.rdchem.Mol object at 0x7fdd147d33e0>, <rdkit.Chem.rdchem.Mol object at 0x7fdd147d2ea0>, <rdkit.Chem.rdchem.Mol object at 0x7fdd147d3d10>]","[0, 0, 0, 0, 5654, 5655, 5656, 5657, 5658, 5659, 5660, 1, 5661, 5662, 5663, 5664, 5665]"
2D-PBTCl2,ITIC,-5.43,-3.63,-5.574146341463415,-3.915,1.0,CB,DIO,25.0,MoOx,ZnO,7.38,7.38,0.87,58.43,"[<rdkit.Chem.rdchem.Mol object at 0x7fdd147d3e60>, <rdkit.Chem.rdchem.Mol object at 0x7fdd147d3c30>, <rdkit.Chem.rdchem.Mol object at 0x7fdd147d3ca0>, <rdkit.Chem.rdchem.Mol object at 0x7fdd147d3840>, <rdkit.Chem.rdchem.Mol object at 0x7fdd147d2b20>, <rdkit.Chem.rdchem.Mol object at 0x7fdd147d34c0>, <rdkit.Chem.rdchem.Mol object at 0x7fdd147d2a40>, <rdkit.Chem.rdchem.Mol object at 0x7fdd147d3f40>]","[<rdkit.Chem.rdchem.Mol object at 0x7fdd147d27a0>, <rdkit.Chem.rdchem.Mol object at 0x7fdd147d2ab0>, <rdkit.Chem.rdchem.Mol object at 0x7fdd147d1d20>, <rdkit.Chem.rdchem.Mol object at 0x7fdd147d2730>, <rdkit.Chem.rdchem.Mol object at 0x7fdd147e02e0>]","[<rdkit.Chem.rdchem.Mol object at 0x7fdd147d3e60>, <rdkit.Chem.rdchem.Mol object at 0x7fdd147d3c30>, <rdkit.Chem.rdchem.Mol object at 0x7fdd147d3ca0>, <rdkit.Chem.rdchem.Mol object at 0x7fdd147d3840>, <rdkit.Chem.rdchem.Mol object at 0x7fdd147d2b20>, <rdkit.Chem.rdchem.Mol object at 0x7fdd147d34c0>, <rdkit.Chem.rdchem.Mol object at 0x7fdd147d2a40>, <rdkit.Chem.rdchem.Mol object at 0x7fdd147d3f40>, '.', <rdkit.Chem.rdchem.Mol object at 0x7fdd147d27a0>, <rdkit.Chem.rdchem.Mol object at 0x7fdd147d2ab0>, <rdkit.Chem.rdchem.Mol object at 0x7fdd147d1d20>, <rdkit.Chem.rdchem.Mol object at 0x7fdd147d2730>, <rdkit.Chem.rdchem.Mol object at 0x7fdd147e02e0>]","[0, 0, 0, 5666, 5667, 5668, 5669, 5670, 5671, 5672, 5673, 1, 5674, 5675, 5676, 5677, 5678]"
PTB7-Th,ITIC,-5.204782608695651,-3.5391891891891896,-5.574146341463415,-3.915,1.0,CB,DIO,25.0,MoOx,ZnO,6.91,6.91,0.82,57.09,"[<rdkit.Chem.rdchem.Mol object at 0x7fdd147d3bc0>, <rdkit.Chem.rdchem.Mol object at 0x7fdd147d20a0>, <rdkit.Chem.rdchem.Mol object at 0x7fdd147d3d80>, <rdkit.Chem.rdchem.Mol object at 0x7fdd147d3b50>, <rdkit.Chem.rdchem.Mol object at 0x7fdd147d3680>, <rdkit.Chem.rdchem.Mol object at 0x7fdd147d38b0>, <rdkit.Chem.rdchem.Mol object at 0x7fdd147e00b0>]","[<rdkit.Chem.rdchem.Mol object at 0x7fdd147d3ed0>, <rdkit.Chem.rdchem.Mol object at 0x7fdd147e0200>, <rdkit.Chem.rdchem.Mol object at 0x7fdd147d2b90>, <rdkit.Chem.rdchem.Mol object at 0x7fdd147d2ff0>, <rdkit.Chem.rdchem.Mol object at 0x7fdd147e0890>]","[<rdkit.Chem.rdchem.Mol object at 0x7fdd147d3bc0>, <rdkit.Chem.rdchem.Mol object at 0x7fdd147d20a0>, <rdkit.Chem.rdchem.Mol object at 0x7fdd147d3d80>, <rdkit.Chem.rdchem.Mol object at 0x7fdd147d3b50>, <rdkit.Chem.rdchem.Mol object at 0x7fdd147d3680>, <rdkit.Chem.rdchem.Mol object at 0x7fdd147d38b0>, <rdkit.Chem.rdchem.Mol object at 0x7fdd147e00b0>, '.', <rdkit.Chem.rdchem.Mol object at 0x7fdd147d3ed0>, <rdkit.Chem.rdchem.Mol object at 0x7fdd147e0200>, <rdkit.Chem.rdchem.Mol object at 0x7fdd147d2b90>, <rdkit.Chem.rdchem.Mol object at 0x7fdd147d2ff0>, <rdkit.Chem.rdchem.Mol object at 0x7fdd147e0890>]","[0, 0, 0, 0, 5679, 5680, 5681, 5682, 5683, 5684, 5685, 1, 5686, 5687, 5688, 5689, 5690]"
PBClT,ITIC,-5.47,-3.61,-5.574146341463415,-3.915,1.0,CB,_,25.0,MoOx,ZnO,8.46,8.46,1.01,60.05,"[<rdkit.Chem.rdchem.Mol object at 0x7fdd147d3a00>, <rdkit.Chem.rdchem.Mol object at 0x7fdd147d3990>, <rdkit.Chem.rdchem.Mol object at 0x7fdd147d3df0>, <rdkit.Chem.rdchem.Mol object at 0x7fdd147d1690>, <rdkit.Chem.rdchem.Mol object at 0x7fdd147e0120>, <rdkit.Chem.rdchem.Mol object at 0x7fdd147d3530>, <rdkit.Chem.rdchem.Mol object at 0x7fdd147e0040>]","[<rdkit.Chem.rdchem.Mol object at 0x7fdd147e04a0>, <rdkit.Chem.rdchem.Mol object at 0x7fdd147e0a50>, <rdkit.Chem.rdchem.Mol object at 0x7fdd147d37d0>, <rdkit.Chem.rdchem.Mol object at 0x7fdd147e0510>, <rdkit.Chem.rdchem.Mol object at 0x7fdd147e0ba0>]","[<rdkit.Chem.rdchem.Mol object at 0x7fdd147d3a00>, <rdkit.Chem.rdchem.Mol object at 0x7fdd147d3990>, <rdkit.Chem.rdchem.Mol object at 0x7fdd147d3df0>, <rdkit.Chem.rdchem.Mol object at 0x7fdd147d1690>, <rdkit.Chem.rdchem.Mol object at 0x7fdd147e0120>, <rdkit.Chem.rdchem.Mol object at 0x7fdd147d3530>, <rdkit.Chem.rdchem.Mol object at 0x7fdd147e0040>, '.', <rdkit.Chem.rdchem.Mol object at 0x7fdd147e04a0>, <rdkit.Chem.rdchem.Mol object at 0x7fdd147e0a50>, <rdkit.Chem.rdchem.Mol object at 0x7fdd147d37d0>, <rdkit.Chem.rdchem.Mol object at 0x7fdd147e0510>, <rdkit.Chem.rdchem.Mol object at 0x7fdd147e0ba0>]","[0, 0, 0, 0, 5691, 5692, 5693, 5694, 5695, 5696, 5697, 1, 5698, 5699, 5700, 5701, 5702]"
PBDB-T,BDCPDT-IC,-5.297714285714285,-3.4170000000000003,-5.41,-3.87,1.0,CB,DIO,25.0,MoOx,ZnO,9.33,9.33,0.86,65.52,"[<rdkit.Chem.rdchem.Mol object at 0x7fdd147d3370>, <rdkit.Chem.rdchem.Mol object at 0x7fdd147e0970>, <rdkit.Chem.rdchem.Mol object at 0x7fdd147e0190>, <rdkit.Chem.rdchem.Mol object at 0x7fdd147e0eb0>, <rdkit.Chem.rdchem.Mol object at 0x7fdd147e1930>]","[<rdkit.Chem.rdchem.Mol object at 0x7fdd147e19a0>, <rdkit.Chem.rdchem.Mol object at 0x7fdd147e0270>, <rdkit.Chem.rdchem.Mol object at 0x7fdd147e1460>, <rdkit.Chem.rdchem.Mol object at 0x7fdd147e1540>, <rdkit.Chem.rdchem.Mol object at 0x7fdd147e1000>]","[<rdkit.Chem.rdchem.Mol object at 0x7fdd147d3370>, <rdkit.Chem.rdchem.Mol object at 0x7fdd147e0970>, <rdkit.Chem.rdchem.Mol object at 0x7fdd147e0190>, <rdkit.Chem.rdchem.Mol object at 0x7fdd147e0eb0>, <rdkit.Chem.rdchem.Mol object at 0x7fdd147e1930>, '.', <rdkit.Chem.rdchem.Mol object at 0x7fdd147e19a0>, <rdkit.Chem.rdchem.Mol object at 0x7fdd147e0270>, <rdkit.Chem.rdchem.Mol object at 0x7fdd147e1460>, <rdkit.Chem.rdchem.Mol object at 0x7fdd147e1540>, <rdkit.Chem.rdchem.Mol object at 0x7fdd147e1000>]","[0, 0, 0, 0, 0, 0, 5703, 5704, 5705, 5706, 5707, 1, 5708, 5709, 5710, 5711, 5712]"
PBDB-T,BDCPDT-FIC,-5.297714285714285,-3.4170000000000003,-5.52,-4.0,1.0,CB,_,25.0,MoOx,ZnO,8.12,8.12,0.7,60.67,"[<rdkit.Chem.rdchem.Mol object at 0x7fdd147d1770>, <rdkit.Chem.rdchem.Mol object at 0x7fdd147e1c40>, <rdkit.Chem.rdchem.Mol object at 0x7fdd147e1b60>, <rdkit.Chem.rdchem.Mol object at 0x7fdd147e0d60>, <rdkit.Chem.rdchem.Mol object at 0x7fdd147e1e00>]","[<rdkit.Chem.rdchem.Mol object at 0x7fdd147e1f50>, <rdkit.Chem.rdchem.Mol object at 0x7fdd147e13f0>, <rdkit.Chem.rdchem.Mol object at 0x7fdd147e0c80>, <rdkit.Chem.rdchem.Mol object at 0x7fdd147e1bd0>, <rdkit.Chem.rdchem.Mol object at 0x7fdd147e1380>]","[<rdkit.Chem.rdchem.Mol object at 0x7fdd147d1770>, <rdkit.Chem.rdchem.Mol object at 0x7fdd147e1c40>, <rdkit.Chem.rdchem.Mol object at 0x7fdd147e1b60>, <rdkit.Chem.rdchem.Mol object at 0x7fdd147e0d60>, <rdkit.Chem.rdchem.Mol object at 0x7fdd147e1e00>, '.', <rdkit.Chem.rdchem.Mol object at 0x7fdd147e1f50>, <rdkit.Chem.rdchem.Mol object at 0x7fdd147e13f0>, <rdkit.Chem.rdchem.Mol object at 0x7fdd147e0c80>, <rdkit.Chem.rdchem.Mol object at 0x7fdd147e1bd0>, <rdkit.Chem.rdchem.Mol object at 0x7fdd147e1380>]","[0, 0, 0, 0, 0, 0, 5713, 5714, 5715, 5716, 5717, 1, 5718, 5719, 5720, 5721, 5722]"
PBFTT,ITIC,-5.47,-3.56,-5.574146341463415,-3.915,0.667,CB,_,25.0,MoOx,ZnO,9.1,9.1,0.94,60.5,"[<rdkit.Chem.rdchem.Mol object at 0x7fdd147e0b30>, <rdkit.Chem.rdchem.Mol object at 0x7fdd147e0430>, <rdkit.Chem.rdchem.Mol object at 0x7fdd147e14d0>, <rdkit.Chem.rdchem.Mol object at 0x7fdd147e0660>, <rdkit.Chem.rdchem.Mol object at 0x7fdd147e0580>, <rdkit.Chem.rdchem.Mol object at 0x7fdd147e09e0>, <rdkit.Chem.rdchem.Mol object at 0x7fdd147e0dd0>]","[<rdkit.Chem.rdchem.Mol object at 0x7fdd147e1620>, <rdkit.Chem.rdchem.Mol object at 0x7fdd147e1150>, <rdkit.Chem.rdchem.Mol object at 0x7fdd147e1070>, <rdkit.Chem.rdchem.Mol object at 0x7fdd147e0cf0>, <rdkit.Chem.rdchem.Mol object at 0x7fdd147e0350>]","[<rdkit.Chem.rdchem.Mol object at 0x7fdd147e0b30>, <rdkit.Chem.rdchem.Mol object at 0x7fdd147e0430>, <rdkit.Chem.rdchem.Mol object at 0x7fdd147e14d0>, <rdkit.Chem.rdchem.Mol object at 0x7fdd147e0660>, <rdkit.Chem.rdchem.Mol object at 0x7fdd147e0580>, <rdkit.Chem.rdchem.Mol object at 0x7fdd147e09e0>, <rdkit.Chem.rdchem.Mol object at 0x7fdd147e0dd0>, '.', <rdkit.Chem.rdchem.Mol object at 0x7fdd147e1620>, <rdkit.Chem.rdchem.Mol object at 0x7fdd147e1150>, <rdkit.Chem.rdchem.Mol object at 0x7fdd147e1070>, <rdkit.Chem.rdchem.Mol object at 0x7fdd147e0cf0>, <rdkit.Chem.rdchem.Mol object at 0x7fdd147e0350>]","[0, 0, 0, 0, 5723, 5724, 5725, 5726, 5727, 5728, 5729, 1, 5730, 5731, 5732, 5733, 5734]"
PBDB-O,ITIC,-5.3,-2.82,-5.574146341463415,-3.915,1.0,CB,DIO,160.0,MoOx,ZnO,4.35,4.32,0.846,43.3,"[<rdkit.Chem.rdchem.Mol object at 0x7fdd147d3610>, <rdkit.Chem.rdchem.Mol object at 0x7fdd147e18c0>, <rdkit.Chem.rdchem.Mol object at 0x7fdd147e0820>, <rdkit.Chem.rdchem.Mol object at 0x7fdd147e1a80>, <rdkit.Chem.rdchem.Mol object at 0x7fdd147e2110>, <rdkit.Chem.rdchem.Mol object at 0x7fdd147e1700>, <rdkit.Chem.rdchem.Mol object at 0x7fdd147e1e70>]","[<rdkit.Chem.rdchem.Mol object at 0x7fdd147e1fc0>, <rdkit.Chem.rdchem.Mol object at 0x7fdd147e0c10>, <rdkit.Chem.rdchem.Mol object at 0x7fdd147e1d20>, <rdkit.Chem.rdchem.Mol object at 0x7fdd147e05f0>, <rdkit.Chem.rdchem.Mol object at 0x7fdd147e1690>]","[<rdkit.Chem.rdchem.Mol object at 0x7fdd147d3610>, <rdkit.Chem.rdchem.Mol object at 0x7fdd147e18c0>, <rdkit.Chem.rdchem.Mol object at 0x7fdd147e0820>, <rdkit.Chem.rdchem.Mol object at 0x7fdd147e1a80>, <rdkit.Chem.rdchem.Mol object at 0x7fdd147e2110>, <rdkit.Chem.rdchem.Mol object at 0x7fdd147e1700>, <rdkit.Chem.rdchem.Mol object at 0x7fdd147e1e70>, '.', <rdkit.Chem.rdchem.Mol object at 0x7fdd147e1fc0>, <rdkit.Chem.rdchem.Mol object at 0x7fdd147e0c10>, <rdkit.Chem.rdchem.Mol object at 0x7fdd147e1d20>, <rdkit.Chem.rdchem.Mol object at 0x7fdd147e05f0>, <rdkit.Chem.rdchem.Mol object at 0x7fdd147e1690>]","[0, 0, 0, 0, 5735, 5736, 5737, 5738, 5739, 5740, 5741, 1, 5742, 5743, 5744, 5745, 5746]"
PBDB-T,ITIC,-5.297714285714285,-3.4170000000000003,-5.574146341463415,-3.915,1.0,CB,DIO,160.0,MoOx,ZnO,11.21,11.21,0.899,74.2,"[<rdkit.Chem.rdchem.Mol object at 0x7fdd147d3ae0>, <rdkit.Chem.rdchem.Mol object at 0x7fdd147e22d0>, <rdkit.Chem.rdchem.Mol object at 0x7fdd147e1cb0>, <rdkit.Chem.rdchem.Mol object at 0x7fdd147e2340>, <rdkit.Chem.rdchem.Mol object at 0x7fdd147e2dc0>]","[<rdkit.Chem.rdchem.Mol object at 0x7fdd147e2ff0>, <rdkit.Chem.rdchem.Mol object at 0x7fdd147e2570>, <rdkit.Chem.rdchem.Mol object at 0x7fdd147e1310>, <rdkit.Chem.rdchem.Mol object at 0x7fdd147e2500>, <rdkit.Chem.rdchem.Mol object at 0x7fdd147e0ac0>]","[<rdkit.Chem.rdchem.Mol object at 0x7fdd147d3ae0>, <rdkit.Chem.rdchem.Mol object at 0x7fdd147e22d0>, <rdkit.Chem.rdchem.Mol object at 0x7fdd147e1cb0>, <rdkit.Chem.rdchem.Mol object at 0x7fdd147e2340>, <rdkit.Chem.rdchem.Mol object at 0x7fdd147e2dc0>, '.', <rdkit.Chem.rdchem.Mol object at 0x7fdd147e2ff0>, <rdkit.Chem.rdchem.Mol object at 0x7fdd147e2570>, <rdkit.Chem.rdchem.Mol object at 0x7fdd147e1310>, <rdkit.Chem.rdchem.Mol object at 0x7fdd147e2500>, <rdkit.Chem.rdchem.Mol object at 0x7fdd147e0ac0>]","[0, 0, 0, 0, 0, 0, 5747, 5748, 5749, 5750, 5751, 1, 5752, 5753, 5754, 5755, 5756]"
PBDB-T,BDTIT-M,-5.297714285714285,-3.4170000000000003,-5.4,-3.85,1.0,CB,DIO,100.0,PEDOT:PSS,PDIN,11.31,11.31,0.903,71.3,"[<rdkit.Chem.rdchem.Mol object at 0x7fdd147e2180>, <rdkit.Chem.rdchem.Mol object at 0x7fdd147e28f0>, <rdkit.Chem.rdchem.Mol object at 0x7fdd147e2960>, <rdkit.Chem.rdchem.Mol object at 0x7fdd147e10e0>, <rdkit.Chem.rdchem.Mol object at 0x7fdd147e3290>]","[<rdkit.Chem.rdchem.Mol object at 0x7fdd147e34c0>, <rdkit.Chem.rdchem.Mol object at 0x7fdd147e07b0>, <rdkit.Chem.rdchem.Mol object at 0x7fdd147e1ee0>, <rdkit.Chem.rdchem.Mol object at 0x7fdd147e2c00>, <rdkit.Chem.rdchem.Mol object at 0x7fdd147e2c70>, <rdkit.Chem.rdchem.Mol object at 0x7fdd147ec6d0>, <rdkit.Chem.rdchem.Mol object at 0x7fdd147ec740>]","[<rdkit.Chem.rdchem.Mol object at 0x7fdd147e2180>, <rdkit.Chem.rdchem.Mol object at 0x7fdd147e28f0>, <rdkit.Chem.rdchem.Mol object at 0x7fdd147e2960>, <rdkit.Chem.rdchem.Mol object at 0x7fdd147e10e0>, <rdkit.Chem.rdchem.Mol object at 0x7fdd147e3290>, '.', <rdkit.Chem.rdchem.Mol object at 0x7fdd147e34c0>, <rdkit.Chem.rdchem.Mol object at 0x7fdd147e07b0>, <rdkit.Chem.rdchem.Mol object at 0x7fdd147e1ee0>, <rdkit.Chem.rdchem.Mol object at 0x7fdd147e2c00>, <rdkit.Chem.rdchem.Mol object at 0x7fdd147e2c70>, <rdkit.Chem.rdchem.Mol object at 0x7fdd147ec6d0>, <rdkit.Chem.rdchem.Mol object at 0x7fdd147ec740>]","[0, 0, 0, 0, 5757, 5758, 5759, 5760, 5761, 1, 5762, 5763, 5764, 5765, 5766, 5767, 5768]"
PBDB-T,BDTThIT-M,-5.297714285714285,-3.4170000000000003,-5.35,-3.82,1.0,CB,DIO,100.0,PEDOT:PSS,PDIN,12.12,12.13,0.942,71.4,"[<rdkit.Chem.rdchem.Mol object at 0x7fdd147e3b50>, <rdkit.Chem.rdchem.Mol object at 0x7fdd147e3920>, <rdkit.Chem.rdchem.Mol object at 0x7fdd147e11c0>, <rdkit.Chem.rdchem.Mol object at 0x7fdd147e2ea0>, <rdkit.Chem.rdchem.Mol object at 0x7fdd147e2e30>]","[<rdkit.Chem.rdchem.Mol object at 0x7fdd147e25e0>, <rdkit.Chem.rdchem.Mol object at 0x7fdd147e27a0>, <rdkit.Chem.rdchem.Mol object at 0x7fdd147e37d0>, <rdkit.Chem.rdchem.Mol object at 0x7fdd147e2b20>, <rdkit.Chem.rdchem.Mol object at 0x7fdd147e3a00>]","[<rdkit.Chem.rdchem.Mol object at 0x7fdd147e3b50>, <rdkit.Chem.rdchem.Mol object at 0x7fdd147e3920>, <rdkit.Chem.rdchem.Mol object at 0x7fdd147e11c0>, <rdkit.Chem.rdchem.Mol object at 0x7fdd147e2ea0>, <rdkit.Chem.rdchem.Mol object at 0x7fdd147e2e30>, '.', <rdkit.Chem.rdchem.Mol object at 0x7fdd147e25e0>, <rdkit.Chem.rdchem.Mol object at 0x7fdd147e27a0>, <rdkit.Chem.rdchem.Mol object at 0x7fdd147e37d0>, <rdkit.Chem.rdchem.Mol object at 0x7fdd147e2b20>, <rdkit.Chem.rdchem.Mol object at 0x7fdd147e3a00>]","[0, 0, 0, 0, 0, 0, 5769, 5770, 5771, 5772, 5773, 1, 5774, 5775, 5776, 5777, 5778]"