Donor,Acceptor,HOMO_D_eV,LUMO_D_eV,HOMO_A_eV,LUMO_A_eV,D_A_ratio_m_m,solvent,solvent_additive,annealing_temperature,hole_contact_layer,electron_contact_layer,PCE_percent,calc_PCE_percent,Voc_V,FF_percent,Donor_BRICS,Acceptor_BRICS,DA_pair_BRICS,DA_tokenized_BRICS
PTB7-Th,IFT-ECA,-5.204782608695651,-3.5391891891891896,-5.62,-3.58,0.667,DCB,CN,25.0,MoOx,ZnO,0.03,0.04,0.76,23.6,"[<rdkit.Chem.rdchem.Mol object at 0x7fdd147efc30>, <rdkit.Chem.rdchem.Mol object at 0x7fdd147efa00>, <rdkit.Chem.rdchem.Mol object at 0x7fdd147efae0>, <rdkit.Chem.rdchem.Mol object at 0x7fdd147efa70>, <rdkit.Chem.rdchem.Mol object at 0x7fdd147ee180>, <rdkit.Chem.rdchem.Mol object at 0x7fdd147ef920>, <rdkit.Chem.rdchem.Mol object at 0x7fdd147eea40>]","[<rdkit.Chem.rdchem.Mol object at 0x7fdd147ee880>, <rdkit.Chem.rdchem.Mol object at 0x7fdd147ef5a0>, <rdkit.Chem.rdchem.Mol object at 0x7fdd147ef0d0>, <rdkit.Chem.rdchem.Mol object at 0x7fdd147eedc0>, <rdkit.Chem.rdchem.Mol object at 0x7fdd147eed50>, <rdkit.Chem.rdchem.Mol object at 0x7fdd147efb50>]","[<rdkit.Chem.rdchem.Mol object at 0x7fdd147efc30>, <rdkit.Chem.rdchem.Mol object at 0x7fdd147efa00>, <rdkit.Chem.rdchem.Mol object at 0x7fdd147efae0>, <rdkit.Chem.rdchem.Mol object at 0x7fdd147efa70>, <rdkit.Chem.rdchem.Mol object at 0x7fdd147ee180>, <rdkit.Chem.rdchem.Mol object at 0x7fdd147ef920>, <rdkit.Chem.rdchem.Mol object at 0x7fdd147eea40>, '.', <rdkit.Chem.rdchem.Mol object at 0x7fdd147ee880>, <rdkit.Chem.rdchem.Mol object at 0x7fdd147ef5a0>, <rdkit.Chem.rdchem.Mol object at 0x7fdd147ef0d0>, <rdkit.Chem.rdchem.Mol object at 0x7fdd147eedc0>, <rdkit.Chem.rdchem.Mol object at 0x7fdd147eed50>, <rdkit.Chem.rdchem.Mol object at 0x7fdd147efb50>]","[0, 0, 0, 5942, 5943, 5944, 5945, 5946, 5947, 5948, 1, 5949, 5950, 5951, 5952, 5953, 5954]"
PTB7-Th,IFT-M,-5.204782608695651,-3.5391891891891896,-5.83,-3.65,0.667,DCB,CN,25.0,MoOx,ZnO,0.15,0.15,0.76,24.9,"[<rdkit.Chem.rdchem.Mol object at 0x7fdd147eef10>, <rdkit.Chem.rdchem.Mol object at 0x7fdd147ee420>, <rdkit.Chem.rdchem.Mol object at 0x7fdd147ef290>, <rdkit.Chem.rdchem.Mol object at 0x7fdd147ef3e0>, <rdkit.Chem.rdchem.Mol object at 0x7fdd147ee340>, <rdkit.Chem.rdchem.Mol object at 0x7fdd147ef140>, <rdkit.Chem.rdchem.Mol object at 0x7fdd147f00b0>]","[<rdkit.Chem.rdchem.Mol object at 0x7fdd147efe60>, <rdkit.Chem.rdchem.Mol object at 0x7fdd147edfc0>, <rdkit.Chem.rdchem.Mol object at 0x7fdd147ef990>, <rdkit.Chem.rdchem.Mol object at 0x7fdd147ec190>]","[<rdkit.Chem.rdchem.Mol object at 0x7fdd147eef10>, <rdkit.Chem.rdchem.Mol object at 0x7fdd147ee420>, <rdkit.Chem.rdchem.Mol object at 0x7fdd147ef290>, <rdkit.Chem.rdchem.Mol object at 0x7fdd147ef3e0>, <rdkit.Chem.rdchem.Mol object at 0x7fdd147ee340>, <rdkit.Chem.rdchem.Mol object at 0x7fdd147ef140>, <rdkit.Chem.rdchem.Mol object at 0x7fdd147f00b0>, '.', <rdkit.Chem.rdchem.Mol object at 0x7fdd147efe60>, <rdkit.Chem.rdchem.Mol object at 0x7fdd147edfc0>, <rdkit.Chem.rdchem.Mol object at 0x7fdd147ef990>, <rdkit.Chem.rdchem.Mol object at 0x7fdd147ec190>]","[0, 0, 0, 0, 0, 5955, 5956, 5957, 5958, 5959, 5960, 5961, 1, 5962, 5963, 5964, 5965]"
PTB7-Th,IFT-IC,-5.204782608695651,-3.5391891891891896,-5.7,-3.87,0.667,DCB,CN,25.0,MoOx,ZnO,4.14,4.14,1.03,50.3,"[<rdkit.Chem.rdchem.Mol object at 0x7fdd147efdf0>, <rdkit.Chem.rdchem.Mol object at 0x7fdd147efd10>, <rdkit.Chem.rdchem.Mol object at 0x7fdd147efd80>, <rdkit.Chem.rdchem.Mol object at 0x7fdd147efca0>, <rdkit.Chem.rdchem.Mol object at 0x7fdd147f0190>, <rdkit.Chem.rdchem.Mol object at 0x7fdd147efbc0>, <rdkit.Chem.rdchem.Mol object at 0x7fdd147f0120>]","[<rdkit.Chem.rdchem.Mol object at 0x7fdd147efed0>, <rdkit.Chem.rdchem.Mol object at 0x7fdd147f0350>, <rdkit.Chem.rdchem.Mol object at 0x7fdd147eeff0>, <rdkit.Chem.rdchem.Mol object at 0x7fdd147ef840>, <rdkit.Chem.rdchem.Mol object at 0x7fdd147f0580>]","[<rdkit.Chem.rdchem.Mol object at 0x7fdd147efdf0>, <rdkit.Chem.rdchem.Mol object at 0x7fdd147efd10>, <rdkit.Chem.rdchem.Mol object at 0x7fdd147efd80>, <rdkit.Chem.rdchem.Mol object at 0x7fdd147efca0>, <rdkit.Chem.rdchem.Mol object at 0x7fdd147f0190>, <rdkit.Chem.rdchem.Mol object at 0x7fdd147efbc0>, <rdkit.Chem.rdchem.Mol object at 0x7fdd147f0120>, '.', <rdkit.Chem.rdchem.Mol object at 0x7fdd147efed0>, <rdkit.Chem.rdchem.Mol object at 0x7fdd147f0350>, <rdkit.Chem.rdchem.Mol object at 0x7fdd147eeff0>, <rdkit.Chem.rdchem.Mol object at 0x7fdd147ef840>, <rdkit.Chem.rdchem.Mol object at 0x7fdd147f0580>]","[0, 0, 0, 0, 5966, 5967, 5968, 5969, 5970, 5971, 5972, 1, 5973, 5974, 5975, 5976, 5977]"
PTB7-Th,IFT-TH,-5.204782608695651,-3.5391891891891896,-5.85,-3.67,0.667,DCB,CN,25.0,MoOx,ZnO,7.16,7.15,0.9,60.2,"[<rdkit.Chem.rdchem.Mol object at 0x7fdd147eff40>, <rdkit.Chem.rdchem.Mol object at 0x7fdd147ef760>, <rdkit.Chem.rdchem.Mol object at 0x7fdd147ed4d0>, <rdkit.Chem.rdchem.Mol object at 0x7fdd147f02e0>, <rdkit.Chem.rdchem.Mol object at 0x7fdd147f05f0>, <rdkit.Chem.rdchem.Mol object at 0x7fdd147f0200>, <rdkit.Chem.rdchem.Mol object at 0x7fdd147f0ba0>]","[<rdkit.Chem.rdchem.Mol object at 0x7fdd147f0c80>, <rdkit.Chem.rdchem.Mol object at 0x7fdd147f0b30>, <rdkit.Chem.rdchem.Mol object at 0x7fdd147f0740>, <rdkit.Chem.rdchem.Mol object at 0x7fdd147f0820>, <rdkit.Chem.rdchem.Mol object at 0x7fdd147f0040>]","[<rdkit.Chem.rdchem.Mol object at 0x7fdd147eff40>, <rdkit.Chem.rdchem.Mol object at 0x7fdd147ef760>, <rdkit.Chem.rdchem.Mol object at 0x7fdd147ed4d0>, <rdkit.Chem.rdchem.Mol object at 0x7fdd147f02e0>, <rdkit.Chem.rdchem.Mol object at 0x7fdd147f05f0>, <rdkit.Chem.rdchem.Mol object at 0x7fdd147f0200>, <rdkit.Chem.rdchem.Mol object at 0x7fdd147f0ba0>, '.', <rdkit.Chem.rdchem.Mol object at 0x7fdd147f0c80>, <rdkit.Chem.rdchem.Mol object at 0x7fdd147f0b30>, <rdkit.Chem.rdchem.Mol object at 0x7fdd147f0740>, <rdkit.Chem.rdchem.Mol object at 0x7fdd147f0820>, <rdkit.Chem.rdchem.Mol object at 0x7fdd147f0040>]","[0, 0, 0, 0, 5978, 5979, 5980, 5981, 5982, 5983, 5984, 1, 5985, 5986, 5987, 5988, 5989]"
PBDB-T,IT-M,-5.297714285714285,-3.4170000000000003,-5.513571428571429,-3.808,1.0,CB,DIO,25.0,PEDOT:PSS,PFN-Br,11.5,11.23,0.961,70.0,"[<rdkit.Chem.rdchem.Mol object at 0x7fdd147ef7d0>, <rdkit.Chem.rdchem.Mol object at 0x7fdd147f0d60>, <rdkit.Chem.rdchem.Mol object at 0x7fdd147f0f20>, <rdkit.Chem.rdchem.Mol object at 0x7fdd147f11c0>, <rdkit.Chem.rdchem.Mol object at 0x7fdd147f1bd0>]","[<rdkit.Chem.rdchem.Mol object at 0x7fdd147f1ee0>, <rdkit.Chem.rdchem.Mol object at 0x7fdd147f1230>, <rdkit.Chem.rdchem.Mol object at 0x7fdd147f1310>, <rdkit.Chem.rdchem.Mol object at 0x7fdd147f13f0>, <rdkit.Chem.rdchem.Mol object at 0x7fdd147f0dd0>]","[<rdkit.Chem.rdchem.Mol object at 0x7fdd147ef7d0>, <rdkit.Chem.rdchem.Mol object at 0x7fdd147f0d60>, <rdkit.Chem.rdchem.Mol object at 0x7fdd147f0f20>, <rdkit.Chem.rdchem.Mol object at 0x7fdd147f11c0>, <rdkit.Chem.rdchem.Mol object at 0x7fdd147f1bd0>, '.', <rdkit.Chem.rdchem.Mol object at 0x7fdd147f1ee0>, <rdkit.Chem.rdchem.Mol object at 0x7fdd147f1230>, <rdkit.Chem.rdchem.Mol object at 0x7fdd147f1310>, <rdkit.Chem.rdchem.Mol object at 0x7fdd147f13f0>, <rdkit.Chem.rdchem.Mol object at 0x7fdd147f0dd0>]","[0, 0, 0, 0, 0, 0, 5990, 5991, 5992, 5993, 5994, 1, 5995, 5996, 5997, 5998, 5999]"
PTB7-Th,4TIC,-5.204782608695651,-3.5391891891891896,-5.28,-3.87,0.5,CB,DIO,25.0,PEDOT:PSS,C60-bissalt,10.43,10.56,0.78,72.0,"[<rdkit.Chem.rdchem.Mol object at 0x7fdd147f0ac0>, <rdkit.Chem.rdchem.Mol object at 0x7fdd147f0c10>, <rdkit.Chem.rdchem.Mol object at 0x7fdd147f03c0>, <rdkit.Chem.rdchem.Mol object at 0x7fdd147f0970>, <rdkit.Chem.rdchem.Mol object at 0x7fdd147f0cf0>, <rdkit.Chem.rdchem.Mol object at 0x7fdd147f12a0>, <rdkit.Chem.rdchem.Mol object at 0x7fdd147f1a10>]","[<rdkit.Chem.rdchem.Mol object at 0x7fdd147f1620>, <rdkit.Chem.rdchem.Mol object at 0x7fdd147f04a0>, <rdkit.Chem.rdchem.Mol object at 0x7fdd147f1380>, <rdkit.Chem.rdchem.Mol object at 0x7fdd147f1770>, <rdkit.Chem.rdchem.Mol object at 0x7fdd147f06d0>]","[<rdkit.Chem.rdchem.Mol object at 0x7fdd147f0ac0>, <rdkit.Chem.rdchem.Mol object at 0x7fdd147f0c10>, <rdkit.Chem.rdchem.Mol object at 0x7fdd147f03c0>, <rdkit.Chem.rdchem.Mol object at 0x7fdd147f0970>, <rdkit.Chem.rdchem.Mol object at 0x7fdd147f0cf0>, <rdkit.Chem.rdchem.Mol object at 0x7fdd147f12a0>, <rdkit.Chem.rdchem.Mol object at 0x7fdd147f1a10>, '.', <rdkit.Chem.rdchem.Mol object at 0x7fdd147f1620>, <rdkit.Chem.rdchem.Mol object at 0x7fdd147f04a0>, <rdkit.Chem.rdchem.Mol object at 0x7fdd147f1380>, <rdkit.Chem.rdchem.Mol object at 0x7fdd147f1770>, <rdkit.Chem.rdchem.Mol object at 0x7fdd147f06d0>]","[0, 0, 0, 0, 6000, 6001, 6002, 6003, 6004, 6005, 6006, 1, 6007, 6008, 6009, 6010, 6011]"
PTB7-Th,ITIC,-5.204782608695651,-3.5391891891891896,-5.574146341463415,-3.915,0.8,CB,_,25.0,PEDOT:PSS,C60-bissalt,7.28,7.18,0.83,57.0,"[<rdkit.Chem.rdchem.Mol object at 0x7fdd147f18c0>, <rdkit.Chem.rdchem.Mol object at 0x7fdd147f1e70>, <rdkit.Chem.rdchem.Mol object at 0x7fdd147f09e0>, <rdkit.Chem.rdchem.Mol object at 0x7fdd147f0430>, <rdkit.Chem.rdchem.Mol object at 0x7fdd147f0890>, <rdkit.Chem.rdchem.Mol object at 0x7fdd147f0510>, <rdkit.Chem.rdchem.Mol object at 0x7fdd147f1690>]","[<rdkit.Chem.rdchem.Mol object at 0x7fdd147f0f90>, <rdkit.Chem.rdchem.Mol object at 0x7fdd147f1a80>, <rdkit.Chem.rdchem.Mol object at 0x7fdd147f0270>, <rdkit.Chem.rdchem.Mol object at 0x7fdd147f10e0>, <rdkit.Chem.rdchem.Mol object at 0x7fdd147f1af0>]","[<rdkit.Chem.rdchem.Mol object at 0x7fdd147f18c0>, <rdkit.Chem.rdchem.Mol object at 0x7fdd147f1e70>, <rdkit.Chem.rdchem.Mol object at 0x7fdd147f09e0>, <rdkit.Chem.rdchem.Mol object at 0x7fdd147f0430>, <rdkit.Chem.rdchem.Mol object at 0x7fdd147f0890>, <rdkit.Chem.rdchem.Mol object at 0x7fdd147f0510>, <rdkit.Chem.rdchem.Mol object at 0x7fdd147f1690>, '.', <rdkit.Chem.rdchem.Mol object at 0x7fdd147f0f90>, <rdkit.Chem.rdchem.Mol object at 0x7fdd147f1a80>, <rdkit.Chem.rdchem.Mol object at 0x7fdd147f0270>, <rdkit.Chem.rdchem.Mol object at 0x7fdd147f10e0>, <rdkit.Chem.rdchem.Mol object at 0x7fdd147f1af0>]","[0, 0, 0, 0, 6012, 6013, 6014, 6015, 6016, 6017, 6018, 1, 6019, 6020, 6021, 6022, 6023]"
TBF-BDD,ITIC,-5.37,-3.65,-5.574146341463415,-3.915,1.0,CF,_,110.0,PEDOT:PSS,PDINO,7.13,7.11,0.85,56.0,"[<rdkit.Chem.rdchem.Mol object at 0x7fdd147f1460>, <rdkit.Chem.rdchem.Mol object at 0x7fdd147f2030>, <rdkit.Chem.rdchem.Mol object at 0x7fdd147f1850>, <rdkit.Chem.rdchem.Mol object at 0x7fdd147f1f50>, <rdkit.Chem.rdchem.Mol object at 0x7fdd147f14d0>, <rdkit.Chem.rdchem.Mol object at 0x7fdd147f0a50>, <rdkit.Chem.rdchem.Mol object at 0x7fdd147f22d0>, <rdkit.Chem.rdchem.Mol object at 0x7fdd147f2570>]","[<rdkit.Chem.rdchem.Mol object at 0x7fdd147f2260>, <rdkit.Chem.rdchem.Mol object at 0x7fdd147f1150>, <rdkit.Chem.rdchem.Mol object at 0x7fdd147f0e40>, <rdkit.Chem.rdchem.Mol object at 0x7fdd147f1e00>, <rdkit.Chem.rdchem.Mol object at 0x7fdd147f1d90>]","[<rdkit.Chem.rdchem.Mol object at 0x7fdd147f1460>, <rdkit.Chem.rdchem.Mol object at 0x7fdd147f2030>, <rdkit.Chem.rdchem.Mol object at 0x7fdd147f1850>, <rdkit.Chem.rdchem.Mol object at 0x7fdd147f1f50>, <rdkit.Chem.rdchem.Mol object at 0x7fdd147f14d0>, <rdkit.Chem.rdchem.Mol object at 0x7fdd147f0a50>, <rdkit.Chem.rdchem.Mol object at 0x7fdd147f22d0>, <rdkit.Chem.rdchem.Mol object at 0x7fdd147f2570>, '.', <rdkit.Chem.rdchem.Mol object at 0x7fdd147f2260>, <rdkit.Chem.rdchem.Mol object at 0x7fdd147f1150>, <rdkit.Chem.rdchem.Mol object at 0x7fdd147f0e40>, <rdkit.Chem.rdchem.Mol object at 0x7fdd147f1e00>, <rdkit.Chem.rdchem.Mol object at 0x7fdd147f1d90>]","[0, 0, 0, 6024, 6025, 6026, 6027, 6028, 6029, 6030, 6031, 1, 6032, 6033, 6034, 6035, 6036]"
TBF-BT,ITIC,-5.4,-3.55,-5.574146341463415,-3.915,1.0,CF,_,110.0,PEDOT:PSS,PDINO,7.03,7.09,0.81,63.0,"[<rdkit.Chem.rdchem.Mol object at 0x7fdd147f1d20>, <rdkit.Chem.rdchem.Mol object at 0x7fdd147f25e0>, <rdkit.Chem.rdchem.Mol object at 0x7fdd147f2340>, <rdkit.Chem.rdchem.Mol object at 0x7fdd147fc510>, <rdkit.Chem.rdchem.Mol object at 0x7fdd147f3d80>, <rdkit.Chem.rdchem.Mol object at 0x7fdd147fc660>, <rdkit.Chem.rdchem.Mol object at 0x7fdd147fc4a0>, <rdkit.Chem.rdchem.Mol object at 0x7fdd147fc740>]","[<rdkit.Chem.rdchem.Mol object at 0x7fdd147f3a00>, <rdkit.Chem.rdchem.Mol object at 0x7fdd147f3220>, <rdkit.Chem.rdchem.Mol object at 0x7fdd147f3c30>, <rdkit.Chem.rdchem.Mol object at 0x7fdd147f35a0>, <rdkit.Chem.rdchem.Mol object at 0x7fdd147f2ff0>]","[<rdkit.Chem.rdchem.Mol object at 0x7fdd147f1d20>, <rdkit.Chem.rdchem.Mol object at 0x7fdd147f25e0>, <rdkit.Chem.rdchem.Mol object at 0x7fdd147f2340>, <rdkit.Chem.rdchem.Mol object at 0x7fdd147fc510>, <rdkit.Chem.rdchem.Mol object at 0x7fdd147f3d80>, <rdkit.Chem.rdchem.Mol object at 0x7fdd147fc660>, <rdkit.Chem.rdchem.Mol object at 0x7fdd147fc4a0>, <rdkit.Chem.rdchem.Mol object at 0x7fdd147fc740>, '.', <rdkit.Chem.rdchem.Mol object at 0x7fdd147f3a00>, <rdkit.Chem.rdchem.Mol object at 0x7fdd147f3220>, <rdkit.Chem.rdchem.Mol object at 0x7fdd147f3c30>, <rdkit.Chem.rdchem.Mol object at 0x7fdd147f35a0>, <rdkit.Chem.rdchem.Mol object at 0x7fdd147f2ff0>]","[0, 0, 0, 6037, 6038, 6039, 6040, 6041, 6042, 6043, 6044, 1, 6045, 6046, 6047, 6048, 6049]"
PBT,CzC6C8,-5.43,-3.65,-5.79,-3.79,0.333,CB,_,130.0,MoOx,ZnO,3.3,3.34,0.99,41.0,"[<rdkit.Chem.rdchem.Mol object at 0x7fdd147f37d0>, <rdkit.Chem.rdchem.Mol object at 0x7fdd147f3370>, <rdkit.Chem.rdchem.Mol object at 0x7fdd147f33e0>, <rdkit.Chem.rdchem.Mol object at 0x7fdd147f3a70>, <rdkit.Chem.rdchem.Mol object at 0x7fdd147f3b50>, <rdkit.Chem.rdchem.Mol object at 0x7fdd147f3df0>, <rdkit.Chem.rdchem.Mol object at 0x7fdd147f3680>, <rdkit.Chem.rdchem.Mol object at 0x7fdd147f3bc0>, <rdkit.Chem.rdchem.Mol object at 0x7fdd147f3290>]","[<rdkit.Chem.rdchem.Mol object at 0x7fdd147f2ea0>, <rdkit.Chem.rdchem.Mol object at 0x7fdd147f30d0>, <rdkit.Chem.rdchem.Mol object at 0x7fdd147f3140>, <rdkit.Chem.rdchem.Mol object at 0x7fdd147f3e60>, <rdkit.Chem.rdchem.Mol object at 0x7fdd147f3ed0>, <rdkit.Chem.rdchem.Mol object at 0x7fdd147f3530>]","[<rdkit.Chem.rdchem.Mol object at 0x7fdd147f37d0>, <rdkit.Chem.rdchem.Mol object at 0x7fdd147f3370>, <rdkit.Chem.rdchem.Mol object at 0x7fdd147f33e0>, <rdkit.Chem.rdchem.Mol object at 0x7fdd147f3a70>, <rdkit.Chem.rdchem.Mol object at 0x7fdd147f3b50>, <rdkit.Chem.rdchem.Mol object at 0x7fdd147f3df0>, <rdkit.Chem.rdchem.Mol object at 0x7fdd147f3680>, <rdkit.Chem.rdchem.Mol object at 0x7fdd147f3bc0>, <rdkit.Chem.rdchem.Mol object at 0x7fdd147f3290>, '.', <rdkit.Chem.rdchem.Mol object at 0x7fdd147f2ea0>, <rdkit.Chem.rdchem.Mol object at 0x7fdd147f30d0>, <rdkit.Chem.rdchem.Mol object at 0x7fdd147f3140>, <rdkit.Chem.rdchem.Mol object at 0x7fdd147f3e60>, <rdkit.Chem.rdchem.Mol object at 0x7fdd147f3ed0>, <rdkit.Chem.rdchem.Mol object at 0x7fdd147f3530>]","[0, 6050, 6051, 6052, 6053, 6054, 6055, 6056, 6057, 6058, 1, 6059, 6060, 6061, 6062, 6063, 6064]"
PBT,CZC8,-5.43,-3.65,-5.72,-3.74,0.333,CB,_,130.0,MoOx,ZnO,4.64,4.64,1.03,50.0,"[<rdkit.Chem.rdchem.Mol object at 0x7fdd147f38b0>, <rdkit.Chem.rdchem.Mol object at 0x7fdd147f3f40>, <rdkit.Chem.rdchem.Mol object at 0x7fdd147f3610>, <rdkit.Chem.rdchem.Mol object at 0x7fdd147f2c00>, <rdkit.Chem.rdchem.Mol object at 0x7fdd147f2b90>, <rdkit.Chem.rdchem.Mol object at 0x7fdd147f34c0>, <rdkit.Chem.rdchem.Mol object at 0x7fdd147f2500>, <rdkit.Chem.rdchem.Mol object at 0x7fdd147f3840>, <rdkit.Chem.rdchem.Mol object at 0x7fdd147f2b20>]","[<rdkit.Chem.rdchem.Mol object at 0x7fdd147f1c40>, <rdkit.Chem.rdchem.Mol object at 0x7fdd147f3920>, <rdkit.Chem.rdchem.Mol object at 0x7fdd147f1fc0>, <rdkit.Chem.rdchem.Mol object at 0x7fdd147f2880>, <rdkit.Chem.rdchem.Mol object at 0x7fdd147f2960>, <rdkit.Chem.rdchem.Mol object at 0x7fdd147f26c0>]","[<rdkit.Chem.rdchem.Mol object at 0x7fdd147f38b0>, <rdkit.Chem.rdchem.Mol object at 0x7fdd147f3f40>, <rdkit.Chem.rdchem.Mol object at 0x7fdd147f3610>, <rdkit.Chem.rdchem.Mol object at 0x7fdd147f2c00>, <rdkit.Chem.rdchem.Mol object at 0x7fdd147f2b90>, <rdkit.Chem.rdchem.Mol object at 0x7fdd147f34c0>, <rdkit.Chem.rdchem.Mol object at 0x7fdd147f2500>, <rdkit.Chem.rdchem.Mol object at 0x7fdd147f3840>, <rdkit.Chem.rdchem.Mol object at 0x7fdd147f2b20>, '.', <rdkit.Chem.rdchem.Mol object at 0x7fdd147f1c40>, <rdkit.Chem.rdchem.Mol object at 0x7fdd147f3920>, <rdkit.Chem.rdchem.Mol object at 0x7fdd147f1fc0>, <rdkit.Chem.rdchem.Mol object at 0x7fdd147f2880>, <rdkit.Chem.rdchem.Mol object at 0x7fdd147f2960>, <rdkit.Chem.rdchem.Mol object at 0x7fdd147f26c0>]","[0, 6065, 6066, 6067, 6068, 6069, 6070, 6071, 6072, 6073, 1, 6074, 6075, 6076, 6077, 6078, 6079]"
PTB7-Th,CZC8,-5.204782608695651,-3.5391891891891896,-5.72,-3.74,0.333,CB,_,100.0,MoOx,ZnO,4.91,4.96,0.98,45.0,"[<rdkit.Chem.rdchem.Mol object at 0x7fdd147f3d10>, <rdkit.Chem.rdchem.Mol object at 0x7fdd147f3450>, <rdkit.Chem.rdchem.Mol object at 0x7fdd147f31b0>, <rdkit.Chem.rdchem.Mol object at 0x7fdd147f2dc0>, <rdkit.Chem.rdchem.Mol object at 0x7fdd147f3ae0>, <rdkit.Chem.rdchem.Mol object at 0x7fdd147f3990>, <rdkit.Chem.rdchem.Mol object at 0x7fdd147f1000>]","[<rdkit.Chem.rdchem.Mol object at 0x7fdd147f2a40>, <rdkit.Chem.rdchem.Mol object at 0x7fdd147f3760>, <rdkit.Chem.rdchem.Mol object at 0x7fdd147f29d0>, <rdkit.Chem.rdchem.Mol object at 0x7fdd147f2ab0>, <rdkit.Chem.rdchem.Mol object at 0x7fdd147f3300>, <rdkit.Chem.rdchem.Mol object at 0x7fdd147f3060>]","[<rdkit.Chem.rdchem.Mol object at 0x7fdd147f3d10>, <rdkit.Chem.rdchem.Mol object at 0x7fdd147f3450>, <rdkit.Chem.rdchem.Mol object at 0x7fdd147f31b0>, <rdkit.Chem.rdchem.Mol object at 0x7fdd147f2dc0>, <rdkit.Chem.rdchem.Mol object at 0x7fdd147f3ae0>, <rdkit.Chem.rdchem.Mol object at 0x7fdd147f3990>, <rdkit.Chem.rdchem.Mol object at 0x7fdd147f1000>, '.', <rdkit.Chem.rdchem.Mol object at 0x7fdd147f2a40>, <rdkit.Chem.rdchem.Mol object at 0x7fdd147f3760>, <rdkit.Chem.rdchem.Mol object at 0x7fdd147f29d0>, <rdkit.Chem.rdchem.Mol object at 0x7fdd147f2ab0>, <rdkit.Chem.rdchem.Mol object at 0x7fdd147f3300>, <rdkit.Chem.rdchem.Mol object at 0x7fdd147f3060>]","[0, 0, 0, 6080, 6081, 6082, 6083, 6084, 6085, 6086, 1, 6087, 6088, 6089, 6090, 6091, 6092]"
PTFBDT,CZC8,-5.5,-3.69,-5.72,-3.74,0.333,CB,_,150.0,MoOx,ZnO,4.67,4.73,1.16,51.0,"[<rdkit.Chem.rdchem.Mol object at 0x7fdd147f2f10>, <rdkit.Chem.rdchem.Mol object at 0x7fdd147f2ce0>, <rdkit.Chem.rdchem.Mol object at 0x7fdd147f2d50>, <rdkit.Chem.rdchem.Mol object at 0x7fdd147f1cb0>, <rdkit.Chem.rdchem.Mol object at 0x7fdd147f2110>, <rdkit.Chem.rdchem.Mol object at 0x7fdd147f17e0>, <rdkit.Chem.rdchem.Mol object at 0x7fdd147f1070>, <rdkit.Chem.rdchem.Mol object at 0x7fdd147f1b60>]","[<rdkit.Chem.rdchem.Mol object at 0x7fdd147f2730>, <rdkit.Chem.rdchem.Mol object at 0x7fdd147f15b0>, <rdkit.Chem.rdchem.Mol object at 0x7fdd147f19a0>, <rdkit.Chem.rdchem.Mol object at 0x7fdd147f2810>, <rdkit.Chem.rdchem.Mol object at 0x7fdd147f21f0>, <rdkit.Chem.rdchem.Mol object at 0x7fdd147f20a0>]","[<rdkit.Chem.rdchem.Mol object at 0x7fdd147f2f10>, <rdkit.Chem.rdchem.Mol object at 0x7fdd147f2ce0>, <rdkit.Chem.rdchem.Mol object at 0x7fdd147f2d50>, <rdkit.Chem.rdchem.Mol object at 0x7fdd147f1cb0>, <rdkit.Chem.rdchem.Mol object at 0x7fdd147f2110>, <rdkit.Chem.rdchem.Mol object at 0x7fdd147f17e0>, <rdkit.Chem.rdchem.Mol object at 0x7fdd147f1070>, <rdkit.Chem.rdchem.Mol object at 0x7fdd147f1b60>, '.', <rdkit.Chem.rdchem.Mol object at 0x7fdd147f2730>, <rdkit.Chem.rdchem.Mol object at 0x7fdd147f15b0>, <rdkit.Chem.rdchem.Mol object at 0x7fdd147f19a0>, <rdkit.Chem.rdchem.Mol object at 0x7fdd147f2810>, <rdkit.Chem.rdchem.Mol object at 0x7fdd147f21f0>, <rdkit.Chem.rdchem.Mol object at 0x7fdd147f20a0>]","[0, 0, 6093, 6094, 6095, 6096, 6097, 6098, 6099, 6100, 1, 6101, 6102, 6103, 6104, 6105, 6106]"