Donor,Acceptor,HOMO_D_eV,LUMO_D_eV,HOMO_A_eV,LUMO_A_eV,D_A_ratio_m_m,solvent,solvent_additive,annealing_temperature,hole_contact_layer,electron_contact_layer,PCE_percent,calc_PCE_percent,Voc_V,FF_percent,Donor_BRICS,Acceptor_BRICS,DA_pair_BRICS,DA_tokenized_BRICS
PTB7-Th,COTIC-4F,-5.204782608695651,-3.5391891891891896,-5.26,-4.16,0.667,CB,CN,25.0,MoOx,ZnO,6.4,6.4,0.56,56.3,"[<rdkit.Chem.rdchem.Mol object at 0x7fdd148c53f0>, <rdkit.Chem.rdchem.Mol object at 0x7fdd148c57e0>, <rdkit.Chem.rdchem.Mol object at 0x7fdd148c4510>, <rdkit.Chem.rdchem.Mol object at 0x7fdd148c46d0>, <rdkit.Chem.rdchem.Mol object at 0x7fdd148c4f90>, <rdkit.Chem.rdchem.Mol object at 0x7fdd148c68f0>, <rdkit.Chem.rdchem.Mol object at 0x7fdd148c5690>]","[<rdkit.Chem.rdchem.Mol object at 0x7fdd148c44a0>, <rdkit.Chem.rdchem.Mol object at 0x7fdd148c5850>, <rdkit.Chem.rdchem.Mol object at 0x7fdd148c4040>, <rdkit.Chem.rdchem.Mol object at 0x7fdd148c5930>, <rdkit.Chem.rdchem.Mol object at 0x7fdd148c6880>, <rdkit.Chem.rdchem.Mol object at 0x7fdd148c6030>, <rdkit.Chem.rdchem.Mol object at 0x7fdd148c5fc0>]","[<rdkit.Chem.rdchem.Mol object at 0x7fdd148c53f0>, <rdkit.Chem.rdchem.Mol object at 0x7fdd148c57e0>, <rdkit.Chem.rdchem.Mol object at 0x7fdd148c4510>, <rdkit.Chem.rdchem.Mol object at 0x7fdd148c46d0>, <rdkit.Chem.rdchem.Mol object at 0x7fdd148c4f90>, <rdkit.Chem.rdchem.Mol object at 0x7fdd148c68f0>, <rdkit.Chem.rdchem.Mol object at 0x7fdd148c5690>, '.', <rdkit.Chem.rdchem.Mol object at 0x7fdd148c44a0>, <rdkit.Chem.rdchem.Mol object at 0x7fdd148c5850>, <rdkit.Chem.rdchem.Mol object at 0x7fdd148c4040>, <rdkit.Chem.rdchem.Mol object at 0x7fdd148c5930>, <rdkit.Chem.rdchem.Mol object at 0x7fdd148c6880>, <rdkit.Chem.rdchem.Mol object at 0x7fdd148c6030>, <rdkit.Chem.rdchem.Mol object at 0x7fdd148c5fc0>]","[0, 0, 2463, 2464, 2465, 2466, 2467, 2468, 2469, 1, 2470, 2471, 2472, 2473, 2474, 2475, 2476]"
PTB7-Th,SiOTIC-4F,-5.204782608695651,-3.5391891891891896,-5.28,-4.11,0.667,CF,CN,25.0,MoOx,ZnO,8.6,8.62,0.65,61.4,"[<rdkit.Chem.rdchem.Mol object at 0x7fdd148c4890>, <rdkit.Chem.rdchem.Mol object at 0x7fdd148c5620>, <rdkit.Chem.rdchem.Mol object at 0x7fdd148c5af0>, <rdkit.Chem.rdchem.Mol object at 0x7fdd148c5e00>, <rdkit.Chem.rdchem.Mol object at 0x7fdd148c5bd0>, <rdkit.Chem.rdchem.Mol object at 0x7fdd148c43c0>, <rdkit.Chem.rdchem.Mol object at 0x7fdd148c6110>]","[<rdkit.Chem.rdchem.Mol object at 0x7fdd148c5a80>, <rdkit.Chem.rdchem.Mol object at 0x7fdd148c5ee0>, <rdkit.Chem.rdchem.Mol object at 0x7fdd148c6180>, <rdkit.Chem.rdchem.Mol object at 0x7fdd148c5c40>, <rdkit.Chem.rdchem.Mol object at 0x7fdd148c65e0>, <rdkit.Chem.rdchem.Mol object at 0x7fdd148c63b0>, <rdkit.Chem.rdchem.Mol object at 0x7fdd148c6f10>]","[<rdkit.Chem.rdchem.Mol object at 0x7fdd148c4890>, <rdkit.Chem.rdchem.Mol object at 0x7fdd148c5620>, <rdkit.Chem.rdchem.Mol object at 0x7fdd148c5af0>, <rdkit.Chem.rdchem.Mol object at 0x7fdd148c5e00>, <rdkit.Chem.rdchem.Mol object at 0x7fdd148c5bd0>, <rdkit.Chem.rdchem.Mol object at 0x7fdd148c43c0>, <rdkit.Chem.rdchem.Mol object at 0x7fdd148c6110>, '.', <rdkit.Chem.rdchem.Mol object at 0x7fdd148c5a80>, <rdkit.Chem.rdchem.Mol object at 0x7fdd148c5ee0>, <rdkit.Chem.rdchem.Mol object at 0x7fdd148c6180>, <rdkit.Chem.rdchem.Mol object at 0x7fdd148c5c40>, <rdkit.Chem.rdchem.Mol object at 0x7fdd148c65e0>, <rdkit.Chem.rdchem.Mol object at 0x7fdd148c63b0>, <rdkit.Chem.rdchem.Mol object at 0x7fdd148c6f10>]","[0, 0, 2477, 2478, 2479, 2480, 2481, 2482, 2483, 1, 2484, 2485, 2486, 2487, 2488, 2489, 2490]"
P3HT,BTA100,-5.057777777777777,-2.989444444444445,-4.98,-2.81,1.0,CF,_,100.0,PEDOT:PSS,Ca,1.04,1.04,1.34,47.0,"[<rdkit.Chem.rdchem.Mol object at 0x7fdd148aaff0>, <rdkit.Chem.rdchem.Mol object at 0x7fdd148c7370>, <rdkit.Chem.rdchem.Mol object at 0x7fdd148c7920>, <rdkit.Chem.rdchem.Mol object at 0x7fdd148c76f0>]","[<rdkit.Chem.rdchem.Mol object at 0x7fdd148c77d0>, <rdkit.Chem.rdchem.Mol object at 0x7fdd148c5e70>, <rdkit.Chem.rdchem.Mol object at 0x7fdd148c6e30>, <rdkit.Chem.rdchem.Mol object at 0x7fdd148c5cb0>, <rdkit.Chem.rdchem.Mol object at 0x7fdd148c6490>, <rdkit.Chem.rdchem.Mol object at 0x7fdd148c4270>, <rdkit.Chem.rdchem.Mol object at 0x7fdd148cd770>, <rdkit.Chem.rdchem.Mol object at 0x7fdd148c7ca0>]","[<rdkit.Chem.rdchem.Mol object at 0x7fdd148aaff0>, <rdkit.Chem.rdchem.Mol object at 0x7fdd148c7370>, <rdkit.Chem.rdchem.Mol object at 0x7fdd148c7920>, <rdkit.Chem.rdchem.Mol object at 0x7fdd148c76f0>, '.', <rdkit.Chem.rdchem.Mol object at 0x7fdd148c77d0>, <rdkit.Chem.rdchem.Mol object at 0x7fdd148c5e70>, <rdkit.Chem.rdchem.Mol object at 0x7fdd148c6e30>, <rdkit.Chem.rdchem.Mol object at 0x7fdd148c5cb0>, <rdkit.Chem.rdchem.Mol object at 0x7fdd148c6490>, <rdkit.Chem.rdchem.Mol object at 0x7fdd148c4270>, <rdkit.Chem.rdchem.Mol object at 0x7fdd148cd770>, <rdkit.Chem.rdchem.Mol object at 0x7fdd148c7ca0>]","[0, 0, 0, 0, 2491, 2492, 2493, 2494, 1, 2495, 2496, 2497, 2498, 2499, 2500, 2501, 2502]"
P3HT,BTA101,-5.057777777777777,-2.989444444444445,-5.05,-2.99,1.0,CF,_,120.0,PEDOT:PSS,Ca,3.55,3.55,1.19,56.0,"[<rdkit.Chem.rdchem.Mol object at 0x7fdd148c7f40>, <rdkit.Chem.rdchem.Mol object at 0x7fdd148c7d80>, <rdkit.Chem.rdchem.Mol object at 0x7fdd148c7a70>, <rdkit.Chem.rdchem.Mol object at 0x7fdd148c5460>]","[<rdkit.Chem.rdchem.Mol object at 0x7fdd148c7290>, <rdkit.Chem.rdchem.Mol object at 0x7fdd148c7bc0>, <rdkit.Chem.rdchem.Mol object at 0x7fdd148c7c30>, <rdkit.Chem.rdchem.Mol object at 0x7fdd148c61f0>, <rdkit.Chem.rdchem.Mol object at 0x7fdd148c6d50>, <rdkit.Chem.rdchem.Mol object at 0x7fdd148c7ed0>, <rdkit.Chem.rdchem.Mol object at 0x7fdd148cdcb0>, <rdkit.Chem.rdchem.Mol object at 0x7fdd148c7060>]","[<rdkit.Chem.rdchem.Mol object at 0x7fdd148c7f40>, <rdkit.Chem.rdchem.Mol object at 0x7fdd148c7d80>, <rdkit.Chem.rdchem.Mol object at 0x7fdd148c7a70>, <rdkit.Chem.rdchem.Mol object at 0x7fdd148c5460>, '.', <rdkit.Chem.rdchem.Mol object at 0x7fdd148c7290>, <rdkit.Chem.rdchem.Mol object at 0x7fdd148c7bc0>, <rdkit.Chem.rdchem.Mol object at 0x7fdd148c7c30>, <rdkit.Chem.rdchem.Mol object at 0x7fdd148c61f0>, <rdkit.Chem.rdchem.Mol object at 0x7fdd148c6d50>, <rdkit.Chem.rdchem.Mol object at 0x7fdd148c7ed0>, <rdkit.Chem.rdchem.Mol object at 0x7fdd148cdcb0>, <rdkit.Chem.rdchem.Mol object at 0x7fdd148c7060>]","[0, 0, 0, 0, 2503, 2504, 2505, 2506, 1, 2507, 2508, 2509, 2510, 2511, 2512, 2513, 2514]"
P3HT,BTA103,-5.057777777777777,-2.989444444444445,-5.21,-3.18,0.5,CF,_,120.0,PEDOT:PSS,Ca,5.31,5.31,0.94,66.0,"[<rdkit.Chem.rdchem.Mol object at 0x7fdd148c62d0>, <rdkit.Chem.rdchem.Mol object at 0x7fdd148c59a0>, <rdkit.Chem.rdchem.Mol object at 0x7fdd148cda80>, <rdkit.Chem.rdchem.Mol object at 0x7fdd148c7680>]","[<rdkit.Chem.rdchem.Mol object at 0x7fdd148c7840>, <rdkit.Chem.rdchem.Mol object at 0x7fdd148c7ae0>, <rdkit.Chem.rdchem.Mol object at 0x7fdd148c74c0>, <rdkit.Chem.rdchem.Mol object at 0x7fdd148c7b50>, <rdkit.Chem.rdchem.Mol object at 0x7fdd148cde00>, <rdkit.Chem.rdchem.Mol object at 0x7fdd148c5a10>]","[<rdkit.Chem.rdchem.Mol object at 0x7fdd148c62d0>, <rdkit.Chem.rdchem.Mol object at 0x7fdd148c59a0>, <rdkit.Chem.rdchem.Mol object at 0x7fdd148cda80>, <rdkit.Chem.rdchem.Mol object at 0x7fdd148c7680>, '.', <rdkit.Chem.rdchem.Mol object at 0x7fdd148c7840>, <rdkit.Chem.rdchem.Mol object at 0x7fdd148c7ae0>, <rdkit.Chem.rdchem.Mol object at 0x7fdd148c74c0>, <rdkit.Chem.rdchem.Mol object at 0x7fdd148c7b50>, <rdkit.Chem.rdchem.Mol object at 0x7fdd148cde00>, <rdkit.Chem.rdchem.Mol object at 0x7fdd148c5a10>]","[0, 0, 0, 0, 0, 0, 2515, 2516, 2517, 2518, 1, 2519, 2520, 2521, 2522, 2523, 2524]"
PTB7-Th,6TIC,-5.204782608695651,-3.5391891891891896,-5.33,-3.885,0.667,CB,DIO,150.0,MoOx,ZnO,11.07,11.06,0.831,66.16,"[<rdkit.Chem.rdchem.Mol object at 0x7fdd148c6650>, <rdkit.Chem.rdchem.Mol object at 0x7fdd148c4200>, <rdkit.Chem.rdchem.Mol object at 0x7fdd148c7d10>, <rdkit.Chem.rdchem.Mol object at 0x7fdd148c78b0>, <rdkit.Chem.rdchem.Mol object at 0x7fdd148c7300>, <rdkit.Chem.rdchem.Mol object at 0x7fdd148c7e60>, <rdkit.Chem.rdchem.Mol object at 0x7fdd148cd310>]","[<rdkit.Chem.rdchem.Mol object at 0x7fdd148c7990>, <rdkit.Chem.rdchem.Mol object at 0x7fdd148cd4d0>, <rdkit.Chem.rdchem.Mol object at 0x7fdd148c6f80>, <rdkit.Chem.rdchem.Mol object at 0x7fdd148c6260>, <rdkit.Chem.rdchem.Mol object at 0x7fdd148cd000>]","[<rdkit.Chem.rdchem.Mol object at 0x7fdd148c6650>, <rdkit.Chem.rdchem.Mol object at 0x7fdd148c4200>, <rdkit.Chem.rdchem.Mol object at 0x7fdd148c7d10>, <rdkit.Chem.rdchem.Mol object at 0x7fdd148c78b0>, <rdkit.Chem.rdchem.Mol object at 0x7fdd148c7300>, <rdkit.Chem.rdchem.Mol object at 0x7fdd148c7e60>, <rdkit.Chem.rdchem.Mol object at 0x7fdd148cd310>, '.', <rdkit.Chem.rdchem.Mol object at 0x7fdd148c7990>, <rdkit.Chem.rdchem.Mol object at 0x7fdd148cd4d0>, <rdkit.Chem.rdchem.Mol object at 0x7fdd148c6f80>, <rdkit.Chem.rdchem.Mol object at 0x7fdd148c6260>, <rdkit.Chem.rdchem.Mol object at 0x7fdd148cd000>]","[0, 0, 0, 0, 2525, 2526, 2527, 2528, 2529, 2530, 2531, 1, 2532, 2533, 2534, 2535, 2536]"
PTB7-Th,COi8DFIC,-5.204782608695651,-3.5391891891891896,-5.5,-3.88,1.0,CB,DIO,25.0,MoOx,ZnO,12.16,12.11,0.68,68.2,"[<rdkit.Chem.rdchem.Mol object at 0x7fdd148c4660>, <rdkit.Chem.rdchem.Mol object at 0x7fdd148c7a00>, <rdkit.Chem.rdchem.Mol object at 0x7fdd148c73e0>, <rdkit.Chem.rdchem.Mol object at 0x7fdd148c6ab0>, <rdkit.Chem.rdchem.Mol object at 0x7fdd148cd0e0>, <rdkit.Chem.rdchem.Mol object at 0x7fdd148ccd60>, <rdkit.Chem.rdchem.Mol object at 0x7fdd148cd690>]","[<rdkit.Chem.rdchem.Mol object at 0x7fdd148c7df0>, <rdkit.Chem.rdchem.Mol object at 0x7fdd148cce40>, <rdkit.Chem.rdchem.Mol object at 0x7fdd148c5d90>, <rdkit.Chem.rdchem.Mol object at 0x7fdd148cd230>, <rdkit.Chem.rdchem.Mol object at 0x7fdd148cc660>]","[<rdkit.Chem.rdchem.Mol object at 0x7fdd148c4660>, <rdkit.Chem.rdchem.Mol object at 0x7fdd148c7a00>, <rdkit.Chem.rdchem.Mol object at 0x7fdd148c73e0>, <rdkit.Chem.rdchem.Mol object at 0x7fdd148c6ab0>, <rdkit.Chem.rdchem.Mol object at 0x7fdd148cd0e0>, <rdkit.Chem.rdchem.Mol object at 0x7fdd148ccd60>, <rdkit.Chem.rdchem.Mol object at 0x7fdd148cd690>, '.', <rdkit.Chem.rdchem.Mol object at 0x7fdd148c7df0>, <rdkit.Chem.rdchem.Mol object at 0x7fdd148cce40>, <rdkit.Chem.rdchem.Mol object at 0x7fdd148c5d90>, <rdkit.Chem.rdchem.Mol object at 0x7fdd148cd230>, <rdkit.Chem.rdchem.Mol object at 0x7fdd148cc660>]","[0, 0, 0, 0, 2537, 2538, 2539, 2540, 2541, 2542, 2543, 1, 2544, 2545, 2546, 2547, 2548]"
PTB7-Th,IDT-2BR,-5.204782608695651,-3.5391891891891896,-5.52,-3.69,1.0,o-DCB:CF (4:1),CN,25.0,PEDOT:PSS,Ca,7.7,8.32,0.99,60.0,"[<rdkit.Chem.rdchem.Mol object at 0x7fdd148c5d20>, <rdkit.Chem.rdchem.Mol object at 0x7fdd148c7140>, <rdkit.Chem.rdchem.Mol object at 0x7fdd148c5b60>, <rdkit.Chem.rdchem.Mol object at 0x7fdd148ccb30>, <rdkit.Chem.rdchem.Mol object at 0x7fdd148cd540>, <rdkit.Chem.rdchem.Mol object at 0x7fdd148cd460>, <rdkit.Chem.rdchem.Mol object at 0x7fdd148cdee0>]","[<rdkit.Chem.rdchem.Mol object at 0x7fdd148cd3f0>, <rdkit.Chem.rdchem.Mol object at 0x7fdd148ccf20>, <rdkit.Chem.rdchem.Mol object at 0x7fdd148cd2a0>, <rdkit.Chem.rdchem.Mol object at 0x7fdd148cdd90>, <rdkit.Chem.rdchem.Mol object at 0x7fdd148cc120>, <rdkit.Chem.rdchem.Mol object at 0x7fdd148cc5f0>]","[<rdkit.Chem.rdchem.Mol object at 0x7fdd148c5d20>, <rdkit.Chem.rdchem.Mol object at 0x7fdd148c7140>, <rdkit.Chem.rdchem.Mol object at 0x7fdd148c5b60>, <rdkit.Chem.rdchem.Mol object at 0x7fdd148ccb30>, <rdkit.Chem.rdchem.Mol object at 0x7fdd148cd540>, <rdkit.Chem.rdchem.Mol object at 0x7fdd148cd460>, <rdkit.Chem.rdchem.Mol object at 0x7fdd148cdee0>, '.', <rdkit.Chem.rdchem.Mol object at 0x7fdd148cd3f0>, <rdkit.Chem.rdchem.Mol object at 0x7fdd148ccf20>, <rdkit.Chem.rdchem.Mol object at 0x7fdd148cd2a0>, <rdkit.Chem.rdchem.Mol object at 0x7fdd148cdd90>, <rdkit.Chem.rdchem.Mol object at 0x7fdd148cc120>, <rdkit.Chem.rdchem.Mol object at 0x7fdd148cc5f0>]","[0, 0, 0, 2549, 2550, 2551, 2552, 2553, 2554, 2555, 1, 2556, 2557, 2558, 2559, 2560, 2561]"
PTB7-Th,IDT-2BR1,-5.204782608695651,-3.5391891891891896,-5.37,-3.67,1.0,o-DCB:CF (4:1),CN,25.0,PEDOT:PSS,Ca,8.7,8.66,0.95,60.0,"[<rdkit.Chem.rdchem.Mol object at 0x7fdd148cc4a0>, <rdkit.Chem.rdchem.Mol object at 0x7fdd148cd070>, <rdkit.Chem.rdchem.Mol object at 0x7fdd148cc040>, <rdkit.Chem.rdchem.Mol object at 0x7fdd148cd1c0>, <rdkit.Chem.rdchem.Mol object at 0x7fdd148ccdd0>, <rdkit.Chem.rdchem.Mol object at 0x7fdd148ccba0>, <rdkit.Chem.rdchem.Mol object at 0x7fdd148ccc80>]","[<rdkit.Chem.rdchem.Mol object at 0x7fdd148ccac0>, <rdkit.Chem.rdchem.Mol object at 0x7fdd148cd620>, <rdkit.Chem.rdchem.Mol object at 0x7fdd148cc6d0>, <rdkit.Chem.rdchem.Mol object at 0x7fdd148ccf90>, <rdkit.Chem.rdchem.Mol object at 0x7fdd148cdc40>]","[<rdkit.Chem.rdchem.Mol object at 0x7fdd148cc4a0>, <rdkit.Chem.rdchem.Mol object at 0x7fdd148cd070>, <rdkit.Chem.rdchem.Mol object at 0x7fdd148cc040>, <rdkit.Chem.rdchem.Mol object at 0x7fdd148cd1c0>, <rdkit.Chem.rdchem.Mol object at 0x7fdd148ccdd0>, <rdkit.Chem.rdchem.Mol object at 0x7fdd148ccba0>, <rdkit.Chem.rdchem.Mol object at 0x7fdd148ccc80>, '.', <rdkit.Chem.rdchem.Mol object at 0x7fdd148ccac0>, <rdkit.Chem.rdchem.Mol object at 0x7fdd148cd620>, <rdkit.Chem.rdchem.Mol object at 0x7fdd148cc6d0>, <rdkit.Chem.rdchem.Mol object at 0x7fdd148ccf90>, <rdkit.Chem.rdchem.Mol object at 0x7fdd148cdc40>]","[0, 0, 0, 0, 2562, 2563, 2564, 2565, 2566, 2567, 2568, 1, 2569, 2570, 2571, 2572, 2573]"
PTB7-Th,ATT-2,-5.204782608695651,-3.5391891891891896,-5.5,-3.9,0.556,CB,CN,25.0,MoOx,ZnO,9.58,9.54,0.73,63.0,"[<rdkit.Chem.rdchem.Mol object at 0x7fdd148cc9e0>, <rdkit.Chem.rdchem.Mol object at 0x7fdd148cc970>, <rdkit.Chem.rdchem.Mol object at 0x7fdd148cdd20>, <rdkit.Chem.rdchem.Mol object at 0x7fdd148cccf0>, <rdkit.Chem.rdchem.Mol object at 0x7fdd148cc7b0>, <rdkit.Chem.rdchem.Mol object at 0x7fdd148cd8c0>, <rdkit.Chem.rdchem.Mol object at 0x7fdd148cda10>]","[<rdkit.Chem.rdchem.Mol object at 0x7fdd148cd9a0>, <rdkit.Chem.rdchem.Mol object at 0x7fdd148cde70>, <rdkit.Chem.rdchem.Mol object at 0x7fdd148cc190>, <rdkit.Chem.rdchem.Mol object at 0x7fdd148cc890>, <rdkit.Chem.rdchem.Mol object at 0x7fdd148cc3c0>, <rdkit.Chem.rdchem.Mol object at 0x7fdd148cc350>, <rdkit.Chem.rdchem.Mol object at 0x7fdd148cc430>, <rdkit.Chem.rdchem.Mol object at 0x7fdd148ce340>, <rdkit.Chem.rdchem.Mol object at 0x7fdd148ce030>]","[<rdkit.Chem.rdchem.Mol object at 0x7fdd148cc9e0>, <rdkit.Chem.rdchem.Mol object at 0x7fdd148cc970>, <rdkit.Chem.rdchem.Mol object at 0x7fdd148cdd20>, <rdkit.Chem.rdchem.Mol object at 0x7fdd148cccf0>, <rdkit.Chem.rdchem.Mol object at 0x7fdd148cc7b0>, <rdkit.Chem.rdchem.Mol object at 0x7fdd148cd8c0>, <rdkit.Chem.rdchem.Mol object at 0x7fdd148cda10>, '.', <rdkit.Chem.rdchem.Mol object at 0x7fdd148cd9a0>, <rdkit.Chem.rdchem.Mol object at 0x7fdd148cde70>, <rdkit.Chem.rdchem.Mol object at 0x7fdd148cc190>, <rdkit.Chem.rdchem.Mol object at 0x7fdd148cc890>, <rdkit.Chem.rdchem.Mol object at 0x7fdd148cc3c0>, <rdkit.Chem.rdchem.Mol object at 0x7fdd148cc350>, <rdkit.Chem.rdchem.Mol object at 0x7fdd148cc430>, <rdkit.Chem.rdchem.Mol object at 0x7fdd148ce340>, <rdkit.Chem.rdchem.Mol object at 0x7fdd148ce030>]","[2574, 2575, 2576, 2577, 2578, 2579, 2580, 1, 2581, 2582, 2583, 2584, 2585, 2586, 2587, 2588, 2589]"
PTB7-Th,T1,-5.204782608695651,-3.5391891891891896,-5.42,-3.91,0.556,CB,_,25.0,MoOx,ZnO,9.82,9.8,0.72,65.0,"[<rdkit.Chem.rdchem.Mol object at 0x7fdd148ce500>, <rdkit.Chem.rdchem.Mol object at 0x7fdd148ce570>, <rdkit.Chem.rdchem.Mol object at 0x7fdd148cc510>, <rdkit.Chem.rdchem.Mol object at 0x7fdd148ce3b0>, <rdkit.Chem.rdchem.Mol object at 0x7fdd148cd700>, <rdkit.Chem.rdchem.Mol object at 0x7fdd148cc820>, <rdkit.Chem.rdchem.Mol object at 0x7fdd148cc200>]","[<rdkit.Chem.rdchem.Mol object at 0x7fdd148cc270>, <rdkit.Chem.rdchem.Mol object at 0x7fdd148cdbd0>, <rdkit.Chem.rdchem.Mol object at 0x7fdd148cceb0>, <rdkit.Chem.rdchem.Mol object at 0x7fdd148cc0b0>, <rdkit.Chem.rdchem.Mol object at 0x7fdd148cca50>, <rdkit.Chem.rdchem.Mol object at 0x7fdd148cd930>, <rdkit.Chem.rdchem.Mol object at 0x7fdd148cd7e0>, <rdkit.Chem.rdchem.Mol object at 0x7fdd148cea40>, <rdkit.Chem.rdchem.Mol object at 0x7fdd148ce6c0>]","[<rdkit.Chem.rdchem.Mol object at 0x7fdd148ce500>, <rdkit.Chem.rdchem.Mol object at 0x7fdd148ce570>, <rdkit.Chem.rdchem.Mol object at 0x7fdd148cc510>, <rdkit.Chem.rdchem.Mol object at 0x7fdd148ce3b0>, <rdkit.Chem.rdchem.Mol object at 0x7fdd148cd700>, <rdkit.Chem.rdchem.Mol object at 0x7fdd148cc820>, <rdkit.Chem.rdchem.Mol object at 0x7fdd148cc200>, '.', <rdkit.Chem.rdchem.Mol object at 0x7fdd148cc270>, <rdkit.Chem.rdchem.Mol object at 0x7fdd148cdbd0>, <rdkit.Chem.rdchem.Mol object at 0x7fdd148cceb0>, <rdkit.Chem.rdchem.Mol object at 0x7fdd148cc0b0>, <rdkit.Chem.rdchem.Mol object at 0x7fdd148cca50>, <rdkit.Chem.rdchem.Mol object at 0x7fdd148cd930>, <rdkit.Chem.rdchem.Mol object at 0x7fdd148cd7e0>, <rdkit.Chem.rdchem.Mol object at 0x7fdd148cea40>, <rdkit.Chem.rdchem.Mol object at 0x7fdd148ce6c0>]","[2590, 2591, 2592, 2593, 2594, 2595, 2596, 1, 2597, 2598, 2599, 2600, 2601, 2602, 2603, 2604, 2605]"
PTB7-Th,T2,-5.204782608695651,-3.5391891891891896,-5.34,-3.96,0.556,CB,_,25.0,MoOx,ZnO,10.1,10.02,0.67,66.0,"[<rdkit.Chem.rdchem.Mol object at 0x7fdd148cec00>, <rdkit.Chem.rdchem.Mol object at 0x7fdd148cec70>, <rdkit.Chem.rdchem.Mol object at 0x7fdd148ce2d0>, <rdkit.Chem.rdchem.Mol object at 0x7fdd148ceab0>, <rdkit.Chem.rdchem.Mol object at 0x7fdd148cc900>, <rdkit.Chem.rdchem.Mol object at 0x7fdd148ce1f0>, <rdkit.Chem.rdchem.Mol object at 0x7fdd148ce110>]","[<rdkit.Chem.rdchem.Mol object at 0x7fdd148ce0a0>, <rdkit.Chem.rdchem.Mol object at 0x7fdd148cc740>, <rdkit.Chem.rdchem.Mol object at 0x7fdd148cc580>, <rdkit.Chem.rdchem.Mol object at 0x7fdd148cc2e0>, <rdkit.Chem.rdchem.Mol object at 0x7fdd148cd5b0>, <rdkit.Chem.rdchem.Mol object at 0x7fdd148cdaf0>, <rdkit.Chem.rdchem.Mol object at 0x7fdd148cdf50>, <rdkit.Chem.rdchem.Mol object at 0x7fdd148cf140>, <rdkit.Chem.rdchem.Mol object at 0x7fdd148cedc0>]","[<rdkit.Chem.rdchem.Mol object at 0x7fdd148cec00>, <rdkit.Chem.rdchem.Mol object at 0x7fdd148cec70>, <rdkit.Chem.rdchem.Mol object at 0x7fdd148ce2d0>, <rdkit.Chem.rdchem.Mol object at 0x7fdd148ceab0>, <rdkit.Chem.rdchem.Mol object at 0x7fdd148cc900>, <rdkit.Chem.rdchem.Mol object at 0x7fdd148ce1f0>, <rdkit.Chem.rdchem.Mol object at 0x7fdd148ce110>, '.', <rdkit.Chem.rdchem.Mol object at 0x7fdd148ce0a0>, <rdkit.Chem.rdchem.Mol object at 0x7fdd148cc740>, <rdkit.Chem.rdchem.Mol object at 0x7fdd148cc580>, <rdkit.Chem.rdchem.Mol object at 0x7fdd148cc2e0>, <rdkit.Chem.rdchem.Mol object at 0x7fdd148cd5b0>, <rdkit.Chem.rdchem.Mol object at 0x7fdd148cdaf0>, <rdkit.Chem.rdchem.Mol object at 0x7fdd148cdf50>, <rdkit.Chem.rdchem.Mol object at 0x7fdd148cf140>, <rdkit.Chem.rdchem.Mol object at 0x7fdd148cedc0>]","[2606, 2607, 2608, 2609, 2610, 2611, 2612, 1, 2613, 2614, 2615, 2616, 2617, 2618, 2619, 2620, 2621]"