Donor,Acceptor,HOMO_D_eV,LUMO_D_eV,HOMO_A_eV,LUMO_A_eV,D_A_ratio_m_m,solvent,solvent_additive,annealing_temperature,hole_contact_layer,electron_contact_layer,PCE_percent,calc_PCE_percent,Voc_V,FF_percent,Donor_BRICS,Acceptor_BRICS,DA_pair_BRICS,DA_tokenized_BRICS
J81,m-ITIC,-5.43,-2.98,-5.526666666666667,-3.8515384615384622,1.0,CF,_,160.0,PEDOT:PSS,PDINO,10.6,10.6,0.95,73.08,"[<rdkit.Chem.rdchem.Mol object at 0x7fdd14928d60>, <rdkit.Chem.rdchem.Mol object at 0x7fdd1492a340>, <rdkit.Chem.rdchem.Mol object at 0x7fdd14928e40>, <rdkit.Chem.rdchem.Mol object at 0x7fdd1492a1f0>, <rdkit.Chem.rdchem.Mol object at 0x7fdd1492a570>, <rdkit.Chem.rdchem.Mol object at 0x7fdd1492ac70>]","[<rdkit.Chem.rdchem.Mol object at 0x7fdd1492a260>, <rdkit.Chem.rdchem.Mol object at 0x7fdd1492a810>, <rdkit.Chem.rdchem.Mol object at 0x7fdd1492a880>, <rdkit.Chem.rdchem.Mol object at 0x7fdd14929460>, <rdkit.Chem.rdchem.Mol object at 0x7fdd14929f50>]","[<rdkit.Chem.rdchem.Mol object at 0x7fdd14928d60>, <rdkit.Chem.rdchem.Mol object at 0x7fdd1492a340>, <rdkit.Chem.rdchem.Mol object at 0x7fdd14928e40>, <rdkit.Chem.rdchem.Mol object at 0x7fdd1492a1f0>, <rdkit.Chem.rdchem.Mol object at 0x7fdd1492a570>, <rdkit.Chem.rdchem.Mol object at 0x7fdd1492ac70>, '.', <rdkit.Chem.rdchem.Mol object at 0x7fdd1492a260>, <rdkit.Chem.rdchem.Mol object at 0x7fdd1492a810>, <rdkit.Chem.rdchem.Mol object at 0x7fdd1492a880>, <rdkit.Chem.rdchem.Mol object at 0x7fdd14929460>, <rdkit.Chem.rdchem.Mol object at 0x7fdd14929f50>]","[0, 0, 0, 0, 0, 495, 496, 497, 498, 499, 500, 1, 501, 502, 503, 504, 505]"
J81,m-ITIC,-5.43,-2.98,-5.526666666666667,-3.8515384615384622,1.0,CF,_,160.0,PEDOT:PSS,PDINO,11.05,11.04,0.96,69.83,"[<rdkit.Chem.rdchem.Mol object at 0x7fdd1492adc0>, <rdkit.Chem.rdchem.Mol object at 0x7fdd14929380>, <rdkit.Chem.rdchem.Mol object at 0x7fdd1492a7a0>, <rdkit.Chem.rdchem.Mol object at 0x7fdd14929cb0>, <rdkit.Chem.rdchem.Mol object at 0x7fdd149287b0>, <rdkit.Chem.rdchem.Mol object at 0x7fdd1492b0d0>]","[<rdkit.Chem.rdchem.Mol object at 0x7fdd1492ac00>, <rdkit.Chem.rdchem.Mol object at 0x7fdd14929770>, <rdkit.Chem.rdchem.Mol object at 0x7fdd1492ab90>, <rdkit.Chem.rdchem.Mol object at 0x7fdd14929af0>, <rdkit.Chem.rdchem.Mol object at 0x7fdd14929d20>]","[<rdkit.Chem.rdchem.Mol object at 0x7fdd1492adc0>, <rdkit.Chem.rdchem.Mol object at 0x7fdd14929380>, <rdkit.Chem.rdchem.Mol object at 0x7fdd1492a7a0>, <rdkit.Chem.rdchem.Mol object at 0x7fdd14929cb0>, <rdkit.Chem.rdchem.Mol object at 0x7fdd149287b0>, <rdkit.Chem.rdchem.Mol object at 0x7fdd1492b0d0>, '.', <rdkit.Chem.rdchem.Mol object at 0x7fdd1492ac00>, <rdkit.Chem.rdchem.Mol object at 0x7fdd14929770>, <rdkit.Chem.rdchem.Mol object at 0x7fdd1492ab90>, <rdkit.Chem.rdchem.Mol object at 0x7fdd14929af0>, <rdkit.Chem.rdchem.Mol object at 0x7fdd14929d20>]","[0, 0, 0, 0, 0, 506, 507, 508, 509, 510, 511, 1, 512, 513, 514, 515, 516]"
PBDT(T)[2F]T,ITIC,-5.22,-3.22,-5.574146341463415,-3.915,1.0,CB,_,160.0,MoOx,ZnO,9.8,9.85,0.94,62.0,"[<rdkit.Chem.rdchem.Mol object at 0x7fdd1492b290>, <rdkit.Chem.rdchem.Mol object at 0x7fdd14928890>, <rdkit.Chem.rdchem.Mol object at 0x7fdd1492a650>, <rdkit.Chem.rdchem.Mol object at 0x7fdd1492a730>]","[<rdkit.Chem.rdchem.Mol object at 0x7fdd1492b060>, <rdkit.Chem.rdchem.Mol object at 0x7fdd1492b3e0>, <rdkit.Chem.rdchem.Mol object at 0x7fdd1492a420>, <rdkit.Chem.rdchem.Mol object at 0x7fdd1492b220>, <rdkit.Chem.rdchem.Mol object at 0x7fdd1492b140>]","[<rdkit.Chem.rdchem.Mol object at 0x7fdd1492b290>, <rdkit.Chem.rdchem.Mol object at 0x7fdd14928890>, <rdkit.Chem.rdchem.Mol object at 0x7fdd1492a650>, <rdkit.Chem.rdchem.Mol object at 0x7fdd1492a730>, '.', <rdkit.Chem.rdchem.Mol object at 0x7fdd1492b060>, <rdkit.Chem.rdchem.Mol object at 0x7fdd1492b3e0>, <rdkit.Chem.rdchem.Mol object at 0x7fdd1492a420>, <rdkit.Chem.rdchem.Mol object at 0x7fdd1492b220>, <rdkit.Chem.rdchem.Mol object at 0x7fdd1492b140>]","[0, 0, 0, 0, 0, 0, 0, 517, 518, 519, 520, 1, 521, 522, 523, 524, 525]"
PBDT[2F]T,ITIC,-5.29,-3.19,-5.574146341463415,-3.915,1.5,CB,_,25.0,MoOx,ZnO,5.8,5.78,0.94,53.0,"[<rdkit.Chem.rdchem.Mol object at 0x7fdd1492b760>, <rdkit.Chem.rdchem.Mol object at 0x7fdd1492b1b0>, <rdkit.Chem.rdchem.Mol object at 0x7fdd14929ee0>, <rdkit.Chem.rdchem.Mol object at 0x7fdd1492aea0>]","[<rdkit.Chem.rdchem.Mol object at 0x7fdd14928900>, <rdkit.Chem.rdchem.Mol object at 0x7fdd1492b5a0>, <rdkit.Chem.rdchem.Mol object at 0x7fdd1492ace0>, <rdkit.Chem.rdchem.Mol object at 0x7fdd1492a490>, <rdkit.Chem.rdchem.Mol object at 0x7fdd1492b300>]","[<rdkit.Chem.rdchem.Mol object at 0x7fdd1492b760>, <rdkit.Chem.rdchem.Mol object at 0x7fdd1492b1b0>, <rdkit.Chem.rdchem.Mol object at 0x7fdd14929ee0>, <rdkit.Chem.rdchem.Mol object at 0x7fdd1492aea0>, '.', <rdkit.Chem.rdchem.Mol object at 0x7fdd14928900>, <rdkit.Chem.rdchem.Mol object at 0x7fdd1492b5a0>, <rdkit.Chem.rdchem.Mol object at 0x7fdd1492ace0>, <rdkit.Chem.rdchem.Mol object at 0x7fdd1492a490>, <rdkit.Chem.rdchem.Mol object at 0x7fdd1492b300>]","[0, 0, 0, 0, 0, 0, 0, 526, 527, 528, 529, 1, 530, 531, 532, 533, 534]"
PBDT[2H]T,ITIC,-5.03,-2.93,-5.574146341463415,-3.915,1.0,CB,_,160.0,MoOx,ZnO,2.5,2.46,0.79,41.0,"[<rdkit.Chem.rdchem.Mol object at 0x7fdd1492bb50>, <rdkit.Chem.rdchem.Mol object at 0x7fdd1492b530>, <rdkit.Chem.rdchem.Mol object at 0x7fdd1492af80>, <rdkit.Chem.rdchem.Mol object at 0x7fdd1492aab0>]","[<rdkit.Chem.rdchem.Mol object at 0x7fdd1492b840>, <rdkit.Chem.rdchem.Mol object at 0x7fdd1492af10>, <rdkit.Chem.rdchem.Mol object at 0x7fdd1492bbc0>, <rdkit.Chem.rdchem.Mol object at 0x7fdd1492b990>, <rdkit.Chem.rdchem.Mol object at 0x7fdd1492b6f0>]","[<rdkit.Chem.rdchem.Mol object at 0x7fdd1492bb50>, <rdkit.Chem.rdchem.Mol object at 0x7fdd1492b530>, <rdkit.Chem.rdchem.Mol object at 0x7fdd1492af80>, <rdkit.Chem.rdchem.Mol object at 0x7fdd1492aab0>, '.', <rdkit.Chem.rdchem.Mol object at 0x7fdd1492b840>, <rdkit.Chem.rdchem.Mol object at 0x7fdd1492af10>, <rdkit.Chem.rdchem.Mol object at 0x7fdd1492bbc0>, <rdkit.Chem.rdchem.Mol object at 0x7fdd1492b990>, <rdkit.Chem.rdchem.Mol object at 0x7fdd1492b6f0>]","[0, 0, 0, 0, 0, 0, 0, 535, 536, 537, 538, 1, 539, 540, 541, 542, 543]"
PBDT-2TC,ITIC,-5.43,-3.57,-5.574146341463415,-3.915,1.0,CB,_,120.0,PEDOT:PSS,C60-bissalt,9.35,9.35,0.93,65.7,"[<rdkit.Chem.rdchem.Mol object at 0x7fdd1492bd10>, <rdkit.Chem.rdchem.Mol object at 0x7fdd1492bf40>, <rdkit.Chem.rdchem.Mol object at 0x7fdd1492bdf0>, <rdkit.Chem.rdchem.Mol object at 0x7fdd1492bd80>, <rdkit.Chem.rdchem.Mol object at 0x7fdd1492ae30>, <rdkit.Chem.rdchem.Mol object at 0x7fdd14929000>, <rdkit.Chem.rdchem.Mol object at 0x7fdd1492b4c0>, <rdkit.Chem.rdchem.Mol object at 0x7fdd148242e0>]","[<rdkit.Chem.rdchem.Mol object at 0x7fdd1492b920>, <rdkit.Chem.rdchem.Mol object at 0x7fdd1492ad50>, <rdkit.Chem.rdchem.Mol object at 0x7fdd1492a9d0>, <rdkit.Chem.rdchem.Mol object at 0x7fdd1492b370>, <rdkit.Chem.rdchem.Mol object at 0x7fdd148243c0>]","[<rdkit.Chem.rdchem.Mol object at 0x7fdd1492bd10>, <rdkit.Chem.rdchem.Mol object at 0x7fdd1492bf40>, <rdkit.Chem.rdchem.Mol object at 0x7fdd1492bdf0>, <rdkit.Chem.rdchem.Mol object at 0x7fdd1492bd80>, <rdkit.Chem.rdchem.Mol object at 0x7fdd1492ae30>, <rdkit.Chem.rdchem.Mol object at 0x7fdd14929000>, <rdkit.Chem.rdchem.Mol object at 0x7fdd1492b4c0>, <rdkit.Chem.rdchem.Mol object at 0x7fdd148242e0>, '.', <rdkit.Chem.rdchem.Mol object at 0x7fdd1492b920>, <rdkit.Chem.rdchem.Mol object at 0x7fdd1492ad50>, <rdkit.Chem.rdchem.Mol object at 0x7fdd1492a9d0>, <rdkit.Chem.rdchem.Mol object at 0x7fdd1492b370>, <rdkit.Chem.rdchem.Mol object at 0x7fdd148243c0>]","[0, 0, 0, 544, 545, 546, 547, 548, 549, 550, 551, 1, 552, 553, 554, 555, 556]"
PBDT-S-2TC,ITIC,-5.47,-3.58,-5.574146341463415,-3.915,1.0,CB,_,120.0,PEDOT:PSS,C60-bissalt,10.12,10.12,0.96,64.3,"[<rdkit.Chem.rdchem.Mol object at 0x7fdd1492ba00>, <rdkit.Chem.rdchem.Mol object at 0x7fdd1492bca0>, <rdkit.Chem.rdchem.Mol object at 0x7fdd1492b8b0>, <rdkit.Chem.rdchem.Mol object at 0x7fdd1492a960>, <rdkit.Chem.rdchem.Mol object at 0x7fdd1492bed0>, <rdkit.Chem.rdchem.Mol object at 0x7fdd14824190>, <rdkit.Chem.rdchem.Mol object at 0x7fdd1492b450>, <rdkit.Chem.rdchem.Mol object at 0x7fdd14824200>, <rdkit.Chem.rdchem.Mol object at 0x7fdd14824a50>]","[<rdkit.Chem.rdchem.Mol object at 0x7fdd14929e70>, <rdkit.Chem.rdchem.Mol object at 0x7fdd148249e0>, <rdkit.Chem.rdchem.Mol object at 0x7fdd1492ba70>, <rdkit.Chem.rdchem.Mol object at 0x7fdd1492bae0>, <rdkit.Chem.rdchem.Mol object at 0x7fdd14824c80>]","[<rdkit.Chem.rdchem.Mol object at 0x7fdd1492ba00>, <rdkit.Chem.rdchem.Mol object at 0x7fdd1492bca0>, <rdkit.Chem.rdchem.Mol object at 0x7fdd1492b8b0>, <rdkit.Chem.rdchem.Mol object at 0x7fdd1492a960>, <rdkit.Chem.rdchem.Mol object at 0x7fdd1492bed0>, <rdkit.Chem.rdchem.Mol object at 0x7fdd14824190>, <rdkit.Chem.rdchem.Mol object at 0x7fdd1492b450>, <rdkit.Chem.rdchem.Mol object at 0x7fdd14824200>, <rdkit.Chem.rdchem.Mol object at 0x7fdd14824a50>, '.', <rdkit.Chem.rdchem.Mol object at 0x7fdd14929e70>, <rdkit.Chem.rdchem.Mol object at 0x7fdd148249e0>, <rdkit.Chem.rdchem.Mol object at 0x7fdd1492ba70>, <rdkit.Chem.rdchem.Mol object at 0x7fdd1492bae0>, <rdkit.Chem.rdchem.Mol object at 0x7fdd14824c80>]","[0, 0, 557, 558, 559, 560, 561, 562, 563, 564, 565, 1, 566, 567, 568, 569, 570]"
PBDT-DTN,ITIC,-5.37,-3.53,-5.574146341463415,-3.915,0.667,CF,DPE,25.0,PEDOT:PSS,Ca,8.3,8.25,0.92,65.0,"[<rdkit.Chem.rdchem.Mol object at 0x7fdd1492bc30>, <rdkit.Chem.rdchem.Mol object at 0x7fdd14929e00>, <rdkit.Chem.rdchem.Mol object at 0x7fdd148245f0>, <rdkit.Chem.rdchem.Mol object at 0x7fdd14824b30>, <rdkit.Chem.rdchem.Mol object at 0x7fdd14824eb0>, <rdkit.Chem.rdchem.Mol object at 0x7fdd14824f90>]","[<rdkit.Chem.rdchem.Mol object at 0x7fdd1492aff0>, <rdkit.Chem.rdchem.Mol object at 0x7fdd148250e0>, <rdkit.Chem.rdchem.Mol object at 0x7fdd1492b680>, <rdkit.Chem.rdchem.Mol object at 0x7fdd14825700>, <rdkit.Chem.rdchem.Mol object at 0x7fdd14824120>]","[<rdkit.Chem.rdchem.Mol object at 0x7fdd1492bc30>, <rdkit.Chem.rdchem.Mol object at 0x7fdd14929e00>, <rdkit.Chem.rdchem.Mol object at 0x7fdd148245f0>, <rdkit.Chem.rdchem.Mol object at 0x7fdd14824b30>, <rdkit.Chem.rdchem.Mol object at 0x7fdd14824eb0>, <rdkit.Chem.rdchem.Mol object at 0x7fdd14824f90>, '.', <rdkit.Chem.rdchem.Mol object at 0x7fdd1492aff0>, <rdkit.Chem.rdchem.Mol object at 0x7fdd148250e0>, <rdkit.Chem.rdchem.Mol object at 0x7fdd1492b680>, <rdkit.Chem.rdchem.Mol object at 0x7fdd14825700>, <rdkit.Chem.rdchem.Mol object at 0x7fdd14824120>]","[0, 0, 0, 0, 0, 571, 572, 573, 574, 575, 576, 1, 577, 578, 579, 580, 581]"
PBDT-FBT,ITIC,-5.14,-3.35,-5.574146341463415,-3.915,1.0,CB,DIO,25.0,MoOx,ZnO,7.15,7.18,0.82,63.8,"[<rdkit.Chem.rdchem.Mol object at 0x7fdd1492b610>, <rdkit.Chem.rdchem.Mol object at 0x7fdd1492aa40>, <rdkit.Chem.rdchem.Mol object at 0x7fdd1492a0a0>, <rdkit.Chem.rdchem.Mol object at 0x7fdd14825070>, <rdkit.Chem.rdchem.Mol object at 0x7fdd14824cf0>, <rdkit.Chem.rdchem.Mol object at 0x7fdd14825000>, <rdkit.Chem.rdchem.Mol object at 0x7fdd14824350>, <rdkit.Chem.rdchem.Mol object at 0x7fdd14825850>]","[<rdkit.Chem.rdchem.Mol object at 0x7fdd14825230>, <rdkit.Chem.rdchem.Mol object at 0x7fdd14824580>, <rdkit.Chem.rdchem.Mol object at 0x7fdd148240b0>, <rdkit.Chem.rdchem.Mol object at 0x7fdd14824ba0>, <rdkit.Chem.rdchem.Mol object at 0x7fdd14824f20>]","[<rdkit.Chem.rdchem.Mol object at 0x7fdd1492b610>, <rdkit.Chem.rdchem.Mol object at 0x7fdd1492aa40>, <rdkit.Chem.rdchem.Mol object at 0x7fdd1492a0a0>, <rdkit.Chem.rdchem.Mol object at 0x7fdd14825070>, <rdkit.Chem.rdchem.Mol object at 0x7fdd14824cf0>, <rdkit.Chem.rdchem.Mol object at 0x7fdd14825000>, <rdkit.Chem.rdchem.Mol object at 0x7fdd14824350>, <rdkit.Chem.rdchem.Mol object at 0x7fdd14825850>, '.', <rdkit.Chem.rdchem.Mol object at 0x7fdd14825230>, <rdkit.Chem.rdchem.Mol object at 0x7fdd14824580>, <rdkit.Chem.rdchem.Mol object at 0x7fdd148240b0>, <rdkit.Chem.rdchem.Mol object at 0x7fdd14824ba0>, <rdkit.Chem.rdchem.Mol object at 0x7fdd14824f20>]","[0, 0, 0, 582, 583, 584, 585, 586, 587, 588, 589, 1, 590, 591, 592, 593, 594]"
PBDTF-FBT,ITIC,-5.34,-3.53,-5.574146341463415,-3.915,1.0,CB,DIO,25.0,MoOx,ZnO,9.17,9.18,0.9,66.3,"[<rdkit.Chem.rdchem.Mol object at 0x7fdd1492b7d0>, <rdkit.Chem.rdchem.Mol object at 0x7fdd14824820>, <rdkit.Chem.rdchem.Mol object at 0x7fdd14824740>, <rdkit.Chem.rdchem.Mol object at 0x7fdd14824dd0>, <rdkit.Chem.rdchem.Mol object at 0x7fdd14825380>, <rdkit.Chem.rdchem.Mol object at 0x7fdd148255b0>, <rdkit.Chem.rdchem.Mol object at 0x7fdd14824660>, <rdkit.Chem.rdchem.Mol object at 0x7fdd14824d60>, <rdkit.Chem.rdchem.Mol object at 0x7fdd14825b60>]","[<rdkit.Chem.rdchem.Mol object at 0x7fdd14825af0>, <rdkit.Chem.rdchem.Mol object at 0x7fdd14824430>, <rdkit.Chem.rdchem.Mol object at 0x7fdd14825690>, <rdkit.Chem.rdchem.Mol object at 0x7fdd148258c0>, <rdkit.Chem.rdchem.Mol object at 0x7fdd14824970>]","[<rdkit.Chem.rdchem.Mol object at 0x7fdd1492b7d0>, <rdkit.Chem.rdchem.Mol object at 0x7fdd14824820>, <rdkit.Chem.rdchem.Mol object at 0x7fdd14824740>, <rdkit.Chem.rdchem.Mol object at 0x7fdd14824dd0>, <rdkit.Chem.rdchem.Mol object at 0x7fdd14825380>, <rdkit.Chem.rdchem.Mol object at 0x7fdd148255b0>, <rdkit.Chem.rdchem.Mol object at 0x7fdd14824660>, <rdkit.Chem.rdchem.Mol object at 0x7fdd14824d60>, <rdkit.Chem.rdchem.Mol object at 0x7fdd14825b60>, '.', <rdkit.Chem.rdchem.Mol object at 0x7fdd14825af0>, <rdkit.Chem.rdchem.Mol object at 0x7fdd14824430>, <rdkit.Chem.rdchem.Mol object at 0x7fdd14825690>, <rdkit.Chem.rdchem.Mol object at 0x7fdd148258c0>, <rdkit.Chem.rdchem.Mol object at 0x7fdd14824970>]","[0, 0, 595, 596, 597, 598, 599, 600, 601, 602, 603, 1, 604, 605, 606, 607, 608]"
PBDTS-FBT,ITIC,-5.2,-3.4,-5.574146341463415,-3.915,1.0,CB,DIO,25.0,MoOx,ZnO,8.58,8.58,0.89,65.9,"[<rdkit.Chem.rdchem.Mol object at 0x7fdd1492be60>, <rdkit.Chem.rdchem.Mol object at 0x7fdd148251c0>, <rdkit.Chem.rdchem.Mol object at 0x7fdd14825bd0>, <rdkit.Chem.rdchem.Mol object at 0x7fdd148252a0>, <rdkit.Chem.rdchem.Mol object at 0x7fdd14824e40>, <rdkit.Chem.rdchem.Mol object at 0x7fdd14825930>, <rdkit.Chem.rdchem.Mol object at 0x7fdd14825a80>, <rdkit.Chem.rdchem.Mol object at 0x7fdd148262d0>]","[<rdkit.Chem.rdchem.Mol object at 0x7fdd14825e00>, <rdkit.Chem.rdchem.Mol object at 0x7fdd14824900>, <rdkit.Chem.rdchem.Mol object at 0x7fdd14825310>, <rdkit.Chem.rdchem.Mol object at 0x7fdd14824040>, <rdkit.Chem.rdchem.Mol object at 0x7fdd14824ac0>]","[<rdkit.Chem.rdchem.Mol object at 0x7fdd1492be60>, <rdkit.Chem.rdchem.Mol object at 0x7fdd148251c0>, <rdkit.Chem.rdchem.Mol object at 0x7fdd14825bd0>, <rdkit.Chem.rdchem.Mol object at 0x7fdd148252a0>, <rdkit.Chem.rdchem.Mol object at 0x7fdd14824e40>, <rdkit.Chem.rdchem.Mol object at 0x7fdd14825930>, <rdkit.Chem.rdchem.Mol object at 0x7fdd14825a80>, <rdkit.Chem.rdchem.Mol object at 0x7fdd148262d0>, '.', <rdkit.Chem.rdchem.Mol object at 0x7fdd14825e00>, <rdkit.Chem.rdchem.Mol object at 0x7fdd14824900>, <rdkit.Chem.rdchem.Mol object at 0x7fdd14825310>, <rdkit.Chem.rdchem.Mol object at 0x7fdd14824040>, <rdkit.Chem.rdchem.Mol object at 0x7fdd14824ac0>]","[0, 0, 0, 609, 610, 611, 612, 613, 614, 615, 616, 1, 617, 618, 619, 620, 621]"
PBDTSF-FBT,ITIC,-5.41,-3.6,-5.574146341463415,-3.915,1.0,CB,DIO,25.0,MoOx,ZnO,11.66,11.67,1.03,66.3,"[<rdkit.Chem.rdchem.Mol object at 0x7fdd14825a10>, <rdkit.Chem.rdchem.Mol object at 0x7fdd148257e0>, <rdkit.Chem.rdchem.Mol object at 0x7fdd14825460>, <rdkit.Chem.rdchem.Mol object at 0x7fdd14825770>, <rdkit.Chem.rdchem.Mol object at 0x7fdd14826260>, <rdkit.Chem.rdchem.Mol object at 0x7fdd14825150>, <rdkit.Chem.rdchem.Mol object at 0x7fdd14825620>, <rdkit.Chem.rdchem.Mol object at 0x7fdd148267a0>]","[<rdkit.Chem.rdchem.Mol object at 0x7fdd14826810>, <rdkit.Chem.rdchem.Mol object at 0x7fdd14825fc0>, <rdkit.Chem.rdchem.Mol object at 0x7fdd14825e70>, <rdkit.Chem.rdchem.Mol object at 0x7fdd148247b0>, <rdkit.Chem.rdchem.Mol object at 0x7fdd14825d90>]","[<rdkit.Chem.rdchem.Mol object at 0x7fdd14825a10>, <rdkit.Chem.rdchem.Mol object at 0x7fdd148257e0>, <rdkit.Chem.rdchem.Mol object at 0x7fdd14825460>, <rdkit.Chem.rdchem.Mol object at 0x7fdd14825770>, <rdkit.Chem.rdchem.Mol object at 0x7fdd14826260>, <rdkit.Chem.rdchem.Mol object at 0x7fdd14825150>, <rdkit.Chem.rdchem.Mol object at 0x7fdd14825620>, <rdkit.Chem.rdchem.Mol object at 0x7fdd148267a0>, '.', <rdkit.Chem.rdchem.Mol object at 0x7fdd14826810>, <rdkit.Chem.rdchem.Mol object at 0x7fdd14825fc0>, <rdkit.Chem.rdchem.Mol object at 0x7fdd14825e70>, <rdkit.Chem.rdchem.Mol object at 0x7fdd148247b0>, <rdkit.Chem.rdchem.Mol object at 0x7fdd14825d90>]","[0, 0, 0, 622, 623, 624, 625, 626, 627, 628, 629, 1, 630, 631, 632, 633, 634]"
PBDT-NQx,ITIC,-5.24,-3.42,-5.574146341463415,-3.915,1.25,CB,DIO,25.0,MoOx,ZnO,9.11,9.11,0.87,64.6,"[<rdkit.Chem.rdchem.Mol object at 0x7fdd148244a0>, <rdkit.Chem.rdchem.Mol object at 0x7fdd14824c10>, <rdkit.Chem.rdchem.Mol object at 0x7fdd14826490>, <rdkit.Chem.rdchem.Mol object at 0x7fdd148268f0>, <rdkit.Chem.rdchem.Mol object at 0x7fdd14826b90>, <rdkit.Chem.rdchem.Mol object at 0x7fdd14827370>, <rdkit.Chem.rdchem.Mol object at 0x7fdd1481b140>]","[<rdkit.Chem.rdchem.Mol object at 0x7fdd1481bc30>, <rdkit.Chem.rdchem.Mol object at 0x7fdd1481ba00>, <rdkit.Chem.rdchem.Mol object at 0x7fdd1481b990>, <rdkit.Chem.rdchem.Mol object at 0x7fdd1481bdf0>, <rdkit.Chem.rdchem.Mol object at 0x7fdd1481aff0>]","[<rdkit.Chem.rdchem.Mol object at 0x7fdd148244a0>, <rdkit.Chem.rdchem.Mol object at 0x7fdd14824c10>, <rdkit.Chem.rdchem.Mol object at 0x7fdd14826490>, <rdkit.Chem.rdchem.Mol object at 0x7fdd148268f0>, <rdkit.Chem.rdchem.Mol object at 0x7fdd14826b90>, <rdkit.Chem.rdchem.Mol object at 0x7fdd14827370>, <rdkit.Chem.rdchem.Mol object at 0x7fdd1481b140>, '.', <rdkit.Chem.rdchem.Mol object at 0x7fdd1481bc30>, <rdkit.Chem.rdchem.Mol object at 0x7fdd1481ba00>, <rdkit.Chem.rdchem.Mol object at 0x7fdd1481b990>, <rdkit.Chem.rdchem.Mol object at 0x7fdd1481bdf0>, <rdkit.Chem.rdchem.Mol object at 0x7fdd1481aff0>]","[0, 0, 0, 0, 635, 636, 637, 638, 639, 640, 641, 1, 642, 643, 644, 645, 646]"
PBDTS-NQx,ITIC,-5.31,-3.46,-5.574146341463415,-3.915,1.25,CB,DIO,25.0,MoOx,ZnO,11.47,11.47,0.92,69.8,"[<rdkit.Chem.rdchem.Mol object at 0x7fdd1481a490>, <rdkit.Chem.rdchem.Mol object at 0x7fdd1481b0d0>, <rdkit.Chem.rdchem.Mol object at 0x7fdd1481b1b0>, <rdkit.Chem.rdchem.Mol object at 0x7fdd1481b370>, <rdkit.Chem.rdchem.Mol object at 0x7fdd1481a8f0>, <rdkit.Chem.rdchem.Mol object at 0x7fdd14819700>, <rdkit.Chem.rdchem.Mol object at 0x7fdd1480c350>]","[<rdkit.Chem.rdchem.Mol object at 0x7fdd148254d0>, <rdkit.Chem.rdchem.Mol object at 0x7fdd148246d0>, <rdkit.Chem.rdchem.Mol object at 0x7fdd148261f0>, <rdkit.Chem.rdchem.Mol object at 0x7fdd14825cb0>, <rdkit.Chem.rdchem.Mol object at 0x7fdd14824890>]","[<rdkit.Chem.rdchem.Mol object at 0x7fdd1481a490>, <rdkit.Chem.rdchem.Mol object at 0x7fdd1481b0d0>, <rdkit.Chem.rdchem.Mol object at 0x7fdd1481b1b0>, <rdkit.Chem.rdchem.Mol object at 0x7fdd1481b370>, <rdkit.Chem.rdchem.Mol object at 0x7fdd1481a8f0>, <rdkit.Chem.rdchem.Mol object at 0x7fdd14819700>, <rdkit.Chem.rdchem.Mol object at 0x7fdd1480c350>, '.', <rdkit.Chem.rdchem.Mol object at 0x7fdd148254d0>, <rdkit.Chem.rdchem.Mol object at 0x7fdd148246d0>, <rdkit.Chem.rdchem.Mol object at 0x7fdd148261f0>, <rdkit.Chem.rdchem.Mol object at 0x7fdd14825cb0>, <rdkit.Chem.rdchem.Mol object at 0x7fdd14824890>]","[0, 0, 0, 0, 647, 648, 649, 650, 651, 652, 653, 1, 654, 655, 656, 657, 658]"