Donor,Acceptor,HOMO_D_eV,LUMO_D_eV,HOMO_A_eV,LUMO_A_eV,D_A_ratio_m_m,solvent,solvent_additive,annealing_temperature,hole_contact_layer,electron_contact_layer,PCE_percent,calc_PCE_percent,Voc_V,FF_percent,Donor_BRICS,Acceptor_BRICS,DA_pair_BRICS,DA_tokenized_BRICS
PBDB-T,O-NTIC,-5.297714285714285,-3.4170000000000003,-5.51,-3.67,1.25,CB,DIO,25.0,PEDOT:PSS,PDINO,9.1,9.1,0.978,69.9,"[<rdkit.Chem.rdchem.Mol object at 0x7fdd147c55b0>, <rdkit.Chem.rdchem.Mol object at 0x7fdd147c6500>, <rdkit.Chem.rdchem.Mol object at 0x7fdd147c5cb0>, <rdkit.Chem.rdchem.Mol object at 0x7fdd147c4c10>, <rdkit.Chem.rdchem.Mol object at 0x7fdd147c6c00>]","[<rdkit.Chem.rdchem.Mol object at 0x7fdd147c69d0>, <rdkit.Chem.rdchem.Mol object at 0x7fdd147c6b20>, <rdkit.Chem.rdchem.Mol object at 0x7fdd147c4970>, <rdkit.Chem.rdchem.Mol object at 0x7fdd147c66c0>, <rdkit.Chem.rdchem.Mol object at 0x7fdd147c4890>, <rdkit.Chem.rdchem.Mol object at 0x7fdd147c5150>]","[<rdkit.Chem.rdchem.Mol object at 0x7fdd147c55b0>, <rdkit.Chem.rdchem.Mol object at 0x7fdd147c6500>, <rdkit.Chem.rdchem.Mol object at 0x7fdd147c5cb0>, <rdkit.Chem.rdchem.Mol object at 0x7fdd147c4c10>, <rdkit.Chem.rdchem.Mol object at 0x7fdd147c6c00>, '.', <rdkit.Chem.rdchem.Mol object at 0x7fdd147c69d0>, <rdkit.Chem.rdchem.Mol object at 0x7fdd147c6b20>, <rdkit.Chem.rdchem.Mol object at 0x7fdd147c4970>, <rdkit.Chem.rdchem.Mol object at 0x7fdd147c66c0>, <rdkit.Chem.rdchem.Mol object at 0x7fdd147c4890>, <rdkit.Chem.rdchem.Mol object at 0x7fdd147c5150>]","[0, 0, 0, 0, 0, 5464, 5465, 5466, 5467, 5468, 1, 5469, 5470, 5471, 5472, 5473, 5474]"
PBDB-T,O-NTNC,-5.297714285714285,-3.4170000000000003,-5.54,-3.78,1.25,CB,DIO,25.0,PEDOT:PSS,PDINO,11.04,11.05,0.942,73.4,"[<rdkit.Chem.rdchem.Mol object at 0x7fdd147c5c40>, <rdkit.Chem.rdchem.Mol object at 0x7fdd147c5f50>, <rdkit.Chem.rdchem.Mol object at 0x7fdd147c4660>, <rdkit.Chem.rdchem.Mol object at 0x7fdd147c6880>, <rdkit.Chem.rdchem.Mol object at 0x7fdd147c7140>]","[<rdkit.Chem.rdchem.Mol object at 0x7fdd147c5a10>, <rdkit.Chem.rdchem.Mol object at 0x7fdd147c6ce0>, <rdkit.Chem.rdchem.Mol object at 0x7fdd147c4a50>, <rdkit.Chem.rdchem.Mol object at 0x7fdd147c6f80>, <rdkit.Chem.rdchem.Mol object at 0x7fdd147c57e0>, <rdkit.Chem.rdchem.Mol object at 0x7fdd147c52a0>]","[<rdkit.Chem.rdchem.Mol object at 0x7fdd147c5c40>, <rdkit.Chem.rdchem.Mol object at 0x7fdd147c5f50>, <rdkit.Chem.rdchem.Mol object at 0x7fdd147c4660>, <rdkit.Chem.rdchem.Mol object at 0x7fdd147c6880>, <rdkit.Chem.rdchem.Mol object at 0x7fdd147c7140>, '.', <rdkit.Chem.rdchem.Mol object at 0x7fdd147c5a10>, <rdkit.Chem.rdchem.Mol object at 0x7fdd147c6ce0>, <rdkit.Chem.rdchem.Mol object at 0x7fdd147c4a50>, <rdkit.Chem.rdchem.Mol object at 0x7fdd147c6f80>, <rdkit.Chem.rdchem.Mol object at 0x7fdd147c57e0>, <rdkit.Chem.rdchem.Mol object at 0x7fdd147c52a0>]","[0, 0, 0, 0, 0, 5475, 5476, 5477, 5478, 5479, 1, 5480, 5481, 5482, 5483, 5484, 5485]"
PBDB-T,BTTFIC,-5.297714285714285,-3.4170000000000003,-5.56,-3.95,1.5,o-DCB,_,130.0,MoOx,ZnO,9.0,9.01,0.935,54.3,"[<rdkit.Chem.rdchem.Mol object at 0x7fdd147c67a0>, <rdkit.Chem.rdchem.Mol object at 0x7fdd147c6650>, <rdkit.Chem.rdchem.Mol object at 0x7fdd147c4580>, <rdkit.Chem.rdchem.Mol object at 0x7fdd147c6ab0>, <rdkit.Chem.rdchem.Mol object at 0x7fdd147c7680>]","[<rdkit.Chem.rdchem.Mol object at 0x7fdd147c78b0>, <rdkit.Chem.rdchem.Mol object at 0x7fdd147c5af0>, <rdkit.Chem.rdchem.Mol object at 0x7fdd147c54d0>, <rdkit.Chem.rdchem.Mol object at 0x7fdd147c73e0>]","[<rdkit.Chem.rdchem.Mol object at 0x7fdd147c67a0>, <rdkit.Chem.rdchem.Mol object at 0x7fdd147c6650>, <rdkit.Chem.rdchem.Mol object at 0x7fdd147c4580>, <rdkit.Chem.rdchem.Mol object at 0x7fdd147c6ab0>, <rdkit.Chem.rdchem.Mol object at 0x7fdd147c7680>, '.', <rdkit.Chem.rdchem.Mol object at 0x7fdd147c78b0>, <rdkit.Chem.rdchem.Mol object at 0x7fdd147c5af0>, <rdkit.Chem.rdchem.Mol object at 0x7fdd147c54d0>, <rdkit.Chem.rdchem.Mol object at 0x7fdd147c73e0>]","[0, 0, 0, 0, 0, 0, 0, 5486, 5487, 5488, 5489, 5490, 1, 5491, 5492, 5493, 5494]"
PTB7-Th,BTTFIC,-5.204782608695651,-3.5391891891891896,-5.56,-3.95,0.5,o-DCB,_,130.0,MoOx,ZnO,8.47,8.46,0.871,55.0,"[<rdkit.Chem.rdchem.Mol object at 0x7fdd147c6110>, <rdkit.Chem.rdchem.Mol object at 0x7fdd147c7530>, <rdkit.Chem.rdchem.Mol object at 0x7fdd147c6e30>, <rdkit.Chem.rdchem.Mol object at 0x7fdd147c70d0>, <rdkit.Chem.rdchem.Mol object at 0x7fdd147c77d0>, <rdkit.Chem.rdchem.Mol object at 0x7fdd147c74c0>, <rdkit.Chem.rdchem.Mol object at 0x7fdd147c7370>]","[<rdkit.Chem.rdchem.Mol object at 0x7fdd147c6f10>, <rdkit.Chem.rdchem.Mol object at 0x7fdd147c5bd0>, <rdkit.Chem.rdchem.Mol object at 0x7fdd147c68f0>, <rdkit.Chem.rdchem.Mol object at 0x7fdd147c60a0>]","[<rdkit.Chem.rdchem.Mol object at 0x7fdd147c6110>, <rdkit.Chem.rdchem.Mol object at 0x7fdd147c7530>, <rdkit.Chem.rdchem.Mol object at 0x7fdd147c6e30>, <rdkit.Chem.rdchem.Mol object at 0x7fdd147c70d0>, <rdkit.Chem.rdchem.Mol object at 0x7fdd147c77d0>, <rdkit.Chem.rdchem.Mol object at 0x7fdd147c74c0>, <rdkit.Chem.rdchem.Mol object at 0x7fdd147c7370>, '.', <rdkit.Chem.rdchem.Mol object at 0x7fdd147c6f10>, <rdkit.Chem.rdchem.Mol object at 0x7fdd147c5bd0>, <rdkit.Chem.rdchem.Mol object at 0x7fdd147c68f0>, <rdkit.Chem.rdchem.Mol object at 0x7fdd147c60a0>]","[0, 0, 0, 0, 0, 5495, 5496, 5497, 5498, 5499, 5500, 5501, 1, 5502, 5503, 5504, 5505]"
PM6,IT-4F,-5.529999999999999,-3.555,-5.66875,-4.060416666666667,1.0,CB,DIO,100.0,MoOx,ZnO,13.5,13.52,0.84,72.5,"[<rdkit.Chem.rdchem.Mol object at 0x7fdd147c6810>, <rdkit.Chem.rdchem.Mol object at 0x7fdd147c5d20>, <rdkit.Chem.rdchem.Mol object at 0x7fdd147c5460>, <rdkit.Chem.rdchem.Mol object at 0x7fdd147c7300>, <rdkit.Chem.rdchem.Mol object at 0x7fdd147c4c80>, <rdkit.Chem.rdchem.Mol object at 0x7fdd147c7840>]","[<rdkit.Chem.rdchem.Mol object at 0x7fdd147c7d80>, <rdkit.Chem.rdchem.Mol object at 0x7fdd147c5e70>, <rdkit.Chem.rdchem.Mol object at 0x7fdd147c75a0>, <rdkit.Chem.rdchem.Mol object at 0x7fdd147c7760>, <rdkit.Chem.rdchem.Mol object at 0x7fdd147c7220>]","[<rdkit.Chem.rdchem.Mol object at 0x7fdd147c6810>, <rdkit.Chem.rdchem.Mol object at 0x7fdd147c5d20>, <rdkit.Chem.rdchem.Mol object at 0x7fdd147c5460>, <rdkit.Chem.rdchem.Mol object at 0x7fdd147c7300>, <rdkit.Chem.rdchem.Mol object at 0x7fdd147c4c80>, <rdkit.Chem.rdchem.Mol object at 0x7fdd147c7840>, '.', <rdkit.Chem.rdchem.Mol object at 0x7fdd147c7d80>, <rdkit.Chem.rdchem.Mol object at 0x7fdd147c5e70>, <rdkit.Chem.rdchem.Mol object at 0x7fdd147c75a0>, <rdkit.Chem.rdchem.Mol object at 0x7fdd147c7760>, <rdkit.Chem.rdchem.Mol object at 0x7fdd147c7220>]","[0, 0, 0, 0, 0, 5506, 5507, 5508, 5509, 5510, 5511, 1, 5512, 5513, 5514, 5515, 5516]"
PBDB-T,NFTI,-5.297714285714285,-3.4170000000000003,-5.46,-3.77,1.111,o-DCB,DPE,25.0,PEDOT:PSS,FPI,8.34,8.3,0.898,57.0,"[<rdkit.Chem.rdchem.Mol object at 0x7fdd147c6a40>, <rdkit.Chem.rdchem.Mol object at 0x7fdd147c7920>, <rdkit.Chem.rdchem.Mol object at 0x7fdd147c7b50>, <rdkit.Chem.rdchem.Mol object at 0x7fdd147c7990>, <rdkit.Chem.rdchem.Mol object at 0x7fdd147d03c0>]","[<rdkit.Chem.rdchem.Mol object at 0x7fdd147c7c30>, <rdkit.Chem.rdchem.Mol object at 0x7fdd147c7ed0>, <rdkit.Chem.rdchem.Mol object at 0x7fdd147c6570>, <rdkit.Chem.rdchem.Mol object at 0x7fdd147c5620>, <rdkit.Chem.rdchem.Mol object at 0x7fdd147c6c70>, <rdkit.Chem.rdchem.Mol object at 0x7fdd147c4b30>]","[<rdkit.Chem.rdchem.Mol object at 0x7fdd147c6a40>, <rdkit.Chem.rdchem.Mol object at 0x7fdd147c7920>, <rdkit.Chem.rdchem.Mol object at 0x7fdd147c7b50>, <rdkit.Chem.rdchem.Mol object at 0x7fdd147c7990>, <rdkit.Chem.rdchem.Mol object at 0x7fdd147d03c0>, '.', <rdkit.Chem.rdchem.Mol object at 0x7fdd147c7c30>, <rdkit.Chem.rdchem.Mol object at 0x7fdd147c7ed0>, <rdkit.Chem.rdchem.Mol object at 0x7fdd147c6570>, <rdkit.Chem.rdchem.Mol object at 0x7fdd147c5620>, <rdkit.Chem.rdchem.Mol object at 0x7fdd147c6c70>, <rdkit.Chem.rdchem.Mol object at 0x7fdd147c4b30>]","[0, 0, 0, 0, 0, 5517, 5518, 5519, 5520, 5521, 1, 5522, 5523, 5524, 5525, 5526, 5527]"
FTAZ,F5IC,-5.43,-3.3200000000000003,-5.82,-4.05,0.667,CF,DIO,25.0,MoOx,ZnO/PFN-Br,5.6,5.63,0.704,53.7,"[<rdkit.Chem.rdchem.Mol object at 0x7fdd147c6420>, <rdkit.Chem.rdchem.Mol object at 0x7fdd147c7a00>, <rdkit.Chem.rdchem.Mol object at 0x7fdd147c7e60>, <rdkit.Chem.rdchem.Mol object at 0x7fdd147c7290>, <rdkit.Chem.rdchem.Mol object at 0x7fdd147c6ff0>, <rdkit.Chem.rdchem.Mol object at 0x7fdd147c6dc0>]","[<rdkit.Chem.rdchem.Mol object at 0x7fdd147c5930>, <rdkit.Chem.rdchem.Mol object at 0x7fdd147c7ae0>, <rdkit.Chem.rdchem.Mol object at 0x7fdd147c7a70>, <rdkit.Chem.rdchem.Mol object at 0x7fdd147c7450>, <rdkit.Chem.rdchem.Mol object at 0x7fdd147d02e0>]","[<rdkit.Chem.rdchem.Mol object at 0x7fdd147c6420>, <rdkit.Chem.rdchem.Mol object at 0x7fdd147c7a00>, <rdkit.Chem.rdchem.Mol object at 0x7fdd147c7e60>, <rdkit.Chem.rdchem.Mol object at 0x7fdd147c7290>, <rdkit.Chem.rdchem.Mol object at 0x7fdd147c6ff0>, <rdkit.Chem.rdchem.Mol object at 0x7fdd147c6dc0>, '.', <rdkit.Chem.rdchem.Mol object at 0x7fdd147c5930>, <rdkit.Chem.rdchem.Mol object at 0x7fdd147c7ae0>, <rdkit.Chem.rdchem.Mol object at 0x7fdd147c7a70>, <rdkit.Chem.rdchem.Mol object at 0x7fdd147c7450>, <rdkit.Chem.rdchem.Mol object at 0x7fdd147d02e0>]","[0, 0, 0, 0, 0, 5528, 5529, 5530, 5531, 5532, 5533, 1, 5534, 5535, 5536, 5537, 5538]"
FTAZ,F7IC,-5.43,-3.3200000000000003,-5.74,-4.01,0.667,CF,DIO,25.0,MoOx,ZnO/PFN-Br,8.2,8.16,0.742,59.7,"[<rdkit.Chem.rdchem.Mol object at 0x7fdd147c7060>, <rdkit.Chem.rdchem.Mol object at 0x7fdd147c7610>, <rdkit.Chem.rdchem.Mol object at 0x7fdd147c7d10>, <rdkit.Chem.rdchem.Mol object at 0x7fdd147d0580>, <rdkit.Chem.rdchem.Mol object at 0x7fdd147c6d50>, <rdkit.Chem.rdchem.Mol object at 0x7fdd147d0900>]","[<rdkit.Chem.rdchem.Mol object at 0x7fdd147c7f40>, <rdkit.Chem.rdchem.Mol object at 0x7fdd147d07b0>, <rdkit.Chem.rdchem.Mol object at 0x7fdd147c6030>, <rdkit.Chem.rdchem.Mol object at 0x7fdd147c45f0>, <rdkit.Chem.rdchem.Mol object at 0x7fdd147d04a0>]","[<rdkit.Chem.rdchem.Mol object at 0x7fdd147c7060>, <rdkit.Chem.rdchem.Mol object at 0x7fdd147c7610>, <rdkit.Chem.rdchem.Mol object at 0x7fdd147c7d10>, <rdkit.Chem.rdchem.Mol object at 0x7fdd147d0580>, <rdkit.Chem.rdchem.Mol object at 0x7fdd147c6d50>, <rdkit.Chem.rdchem.Mol object at 0x7fdd147d0900>, '.', <rdkit.Chem.rdchem.Mol object at 0x7fdd147c7f40>, <rdkit.Chem.rdchem.Mol object at 0x7fdd147d07b0>, <rdkit.Chem.rdchem.Mol object at 0x7fdd147c6030>, <rdkit.Chem.rdchem.Mol object at 0x7fdd147c45f0>, <rdkit.Chem.rdchem.Mol object at 0x7fdd147d04a0>]","[0, 0, 0, 0, 0, 5539, 5540, 5541, 5542, 5543, 5544, 1, 5545, 5546, 5547, 5548, 5549]"
FTAZ,F9IC,-5.43,-3.3200000000000003,-5.52,-3.97,0.667,CF,DIO,25.0,MoOx,ZnO/PFN-Br,11.7,11.71,0.873,66.4,"[<rdkit.Chem.rdchem.Mol object at 0x7fdd147c7df0>, <rdkit.Chem.rdchem.Mol object at 0x7fdd147c6b90>, <rdkit.Chem.rdchem.Mol object at 0x7fdd147c61f0>, <rdkit.Chem.rdchem.Mol object at 0x7fdd147d0740>, <rdkit.Chem.rdchem.Mol object at 0x7fdd147d0190>, <rdkit.Chem.rdchem.Mol object at 0x7fdd147d0040>]","[<rdkit.Chem.rdchem.Mol object at 0x7fdd147c76f0>, <rdkit.Chem.rdchem.Mol object at 0x7fdd147d05f0>, <rdkit.Chem.rdchem.Mol object at 0x7fdd147c6ea0>, <rdkit.Chem.rdchem.Mol object at 0x7fdd147d00b0>, <rdkit.Chem.rdchem.Mol object at 0x7fdd147d0c10>]","[<rdkit.Chem.rdchem.Mol object at 0x7fdd147c7df0>, <rdkit.Chem.rdchem.Mol object at 0x7fdd147c6b90>, <rdkit.Chem.rdchem.Mol object at 0x7fdd147c61f0>, <rdkit.Chem.rdchem.Mol object at 0x7fdd147d0740>, <rdkit.Chem.rdchem.Mol object at 0x7fdd147d0190>, <rdkit.Chem.rdchem.Mol object at 0x7fdd147d0040>, '.', <rdkit.Chem.rdchem.Mol object at 0x7fdd147c76f0>, <rdkit.Chem.rdchem.Mol object at 0x7fdd147d05f0>, <rdkit.Chem.rdchem.Mol object at 0x7fdd147c6ea0>, <rdkit.Chem.rdchem.Mol object at 0x7fdd147d00b0>, <rdkit.Chem.rdchem.Mol object at 0x7fdd147d0c10>]","[0, 0, 0, 0, 0, 5550, 5551, 5552, 5553, 5554, 5555, 1, 5556, 5557, 5558, 5559, 5560]"
PBDTTz-SBP,ITIC,-5.46,-3.5,-5.574146341463415,-3.915,1.0,CB,_,25.0,PEDOT:PSS,PFN-Br,12.09,12.09,0.914,71.43,"[<rdkit.Chem.rdchem.Mol object at 0x7fdd147c5000>, <rdkit.Chem.rdchem.Mol object at 0x7fdd147c65e0>, <rdkit.Chem.rdchem.Mol object at 0x7fdd147c71b0>, <rdkit.Chem.rdchem.Mol object at 0x7fdd147d0270>, <rdkit.Chem.rdchem.Mol object at 0x7fdd147d0510>, <rdkit.Chem.rdchem.Mol object at 0x7fdd147d0ba0>, <rdkit.Chem.rdchem.Mol object at 0x7fdd147d10e0>, <rdkit.Chem.rdchem.Mol object at 0x7fdd147d1310>]","[<rdkit.Chem.rdchem.Mol object at 0x7fdd147d1a80>, <rdkit.Chem.rdchem.Mol object at 0x7fdd147d15b0>, <rdkit.Chem.rdchem.Mol object at 0x7fdd147d1b60>, <rdkit.Chem.rdchem.Mol object at 0x7fdd147d1850>, <rdkit.Chem.rdchem.Mol object at 0x7fdd147d13f0>]","[<rdkit.Chem.rdchem.Mol object at 0x7fdd147c5000>, <rdkit.Chem.rdchem.Mol object at 0x7fdd147c65e0>, <rdkit.Chem.rdchem.Mol object at 0x7fdd147c71b0>, <rdkit.Chem.rdchem.Mol object at 0x7fdd147d0270>, <rdkit.Chem.rdchem.Mol object at 0x7fdd147d0510>, <rdkit.Chem.rdchem.Mol object at 0x7fdd147d0ba0>, <rdkit.Chem.rdchem.Mol object at 0x7fdd147d10e0>, <rdkit.Chem.rdchem.Mol object at 0x7fdd147d1310>, '.', <rdkit.Chem.rdchem.Mol object at 0x7fdd147d1a80>, <rdkit.Chem.rdchem.Mol object at 0x7fdd147d15b0>, <rdkit.Chem.rdchem.Mol object at 0x7fdd147d1b60>, <rdkit.Chem.rdchem.Mol object at 0x7fdd147d1850>, <rdkit.Chem.rdchem.Mol object at 0x7fdd147d13f0>]","[0, 0, 0, 5561, 5562, 5563, 5564, 5565, 5566, 5567, 5568, 1, 5569, 5570, 5571, 5572, 5573]"
PBDTTz-BP,ITIC,-5.025,-2.97,-5.574146341463415,-3.915,1.0,CB,_,25.0,PEDOT:PSS,PFN-Br,9.2,9.2,0.832,61.56,"[<rdkit.Chem.rdchem.Mol object at 0x7fdd147c49e0>, <rdkit.Chem.rdchem.Mol object at 0x7fdd147d0c80>, <rdkit.Chem.rdchem.Mol object at 0x7fdd147d0890>, <rdkit.Chem.rdchem.Mol object at 0x7fdd147d19a0>, <rdkit.Chem.rdchem.Mol object at 0x7fdd147d1460>, <rdkit.Chem.rdchem.Mol object at 0x7fdd147d18c0>, <rdkit.Chem.rdchem.Mol object at 0x7fdd147d1cb0>, <rdkit.Chem.rdchem.Mol object at 0x7fdd147d14d0>]","[<rdkit.Chem.rdchem.Mol object at 0x7fdd147d1e70>, <rdkit.Chem.rdchem.Mol object at 0x7fdd147d09e0>, <rdkit.Chem.rdchem.Mol object at 0x7fdd147d2030>, <rdkit.Chem.rdchem.Mol object at 0x7fdd147d22d0>, <rdkit.Chem.rdchem.Mol object at 0x7fdd147d1230>]","[<rdkit.Chem.rdchem.Mol object at 0x7fdd147c49e0>, <rdkit.Chem.rdchem.Mol object at 0x7fdd147d0c80>, <rdkit.Chem.rdchem.Mol object at 0x7fdd147d0890>, <rdkit.Chem.rdchem.Mol object at 0x7fdd147d19a0>, <rdkit.Chem.rdchem.Mol object at 0x7fdd147d1460>, <rdkit.Chem.rdchem.Mol object at 0x7fdd147d18c0>, <rdkit.Chem.rdchem.Mol object at 0x7fdd147d1cb0>, <rdkit.Chem.rdchem.Mol object at 0x7fdd147d14d0>, '.', <rdkit.Chem.rdchem.Mol object at 0x7fdd147d1e70>, <rdkit.Chem.rdchem.Mol object at 0x7fdd147d09e0>, <rdkit.Chem.rdchem.Mol object at 0x7fdd147d2030>, <rdkit.Chem.rdchem.Mol object at 0x7fdd147d22d0>, <rdkit.Chem.rdchem.Mol object at 0x7fdd147d1230>]","[0, 0, 0, 5574, 5575, 5576, 5577, 5578, 5579, 5580, 5581, 1, 5582, 5583, 5584, 5585, 5586]"
PJ1,m-ITIC,-5.38,-3.38,-5.526666666666667,-3.8515384615384622,0.667,CF,DIO,130.0,PEDOT:PSS,PDINO,6.41,6.41,1.031,56.0,"[<rdkit.Chem.rdchem.Mol object at 0x7fdd147c6180>, <rdkit.Chem.rdchem.Mol object at 0x7fdd147d1150>, <rdkit.Chem.rdchem.Mol object at 0x7fdd147d1bd0>, <rdkit.Chem.rdchem.Mol object at 0x7fdd147d1380>, <rdkit.Chem.rdchem.Mol object at 0x7fdd147d2180>, <rdkit.Chem.rdchem.Mol object at 0x7fdd147d2570>, <rdkit.Chem.rdchem.Mol object at 0x7fdd147d1540>, <rdkit.Chem.rdchem.Mol object at 0x7fdd147d21f0>]","[<rdkit.Chem.rdchem.Mol object at 0x7fdd147d0f20>, <rdkit.Chem.rdchem.Mol object at 0x7fdd147d2260>, <rdkit.Chem.rdchem.Mol object at 0x7fdd147d1fc0>, <rdkit.Chem.rdchem.Mol object at 0x7fdd147d0120>, <rdkit.Chem.rdchem.Mol object at 0x7fdd147d1620>]","[<rdkit.Chem.rdchem.Mol object at 0x7fdd147c6180>, <rdkit.Chem.rdchem.Mol object at 0x7fdd147d1150>, <rdkit.Chem.rdchem.Mol object at 0x7fdd147d1bd0>, <rdkit.Chem.rdchem.Mol object at 0x7fdd147d1380>, <rdkit.Chem.rdchem.Mol object at 0x7fdd147d2180>, <rdkit.Chem.rdchem.Mol object at 0x7fdd147d2570>, <rdkit.Chem.rdchem.Mol object at 0x7fdd147d1540>, <rdkit.Chem.rdchem.Mol object at 0x7fdd147d21f0>, '.', <rdkit.Chem.rdchem.Mol object at 0x7fdd147d0f20>, <rdkit.Chem.rdchem.Mol object at 0x7fdd147d2260>, <rdkit.Chem.rdchem.Mol object at 0x7fdd147d1fc0>, <rdkit.Chem.rdchem.Mol object at 0x7fdd147d0120>, <rdkit.Chem.rdchem.Mol object at 0x7fdd147d1620>]","[0, 0, 0, 5587, 5588, 5589, 5590, 5591, 5592, 5593, 5594, 1, 5595, 5596, 5597, 5598, 5599]"
PJ1,IDIC,-5.38,-3.38,-5.706,-4.002666666666667,0.667,CF,DIO,130.0,PEDOT:PSS,PDINO,6.18,6.16,0.958,53.6,"[<rdkit.Chem.rdchem.Mol object at 0x7fdd147d1070>, <rdkit.Chem.rdchem.Mol object at 0x7fdd147d1e00>, <rdkit.Chem.rdchem.Mol object at 0x7fdd147d23b0>, <rdkit.Chem.rdchem.Mol object at 0x7fdd147d0970>, <rdkit.Chem.rdchem.Mol object at 0x7fdd147d1930>, <rdkit.Chem.rdchem.Mol object at 0x7fdd147d1f50>, <rdkit.Chem.rdchem.Mol object at 0x7fdd147d1af0>, <rdkit.Chem.rdchem.Mol object at 0x7fdd147d1700>]","[<rdkit.Chem.rdchem.Mol object at 0x7fdd147d28f0>, <rdkit.Chem.rdchem.Mol object at 0x7fdd147d0e40>, <rdkit.Chem.rdchem.Mol object at 0x7fdd147d0dd0>, <rdkit.Chem.rdchem.Mol object at 0x7fdd147d25e0>]","[<rdkit.Chem.rdchem.Mol object at 0x7fdd147d1070>, <rdkit.Chem.rdchem.Mol object at 0x7fdd147d1e00>, <rdkit.Chem.rdchem.Mol object at 0x7fdd147d23b0>, <rdkit.Chem.rdchem.Mol object at 0x7fdd147d0970>, <rdkit.Chem.rdchem.Mol object at 0x7fdd147d1930>, <rdkit.Chem.rdchem.Mol object at 0x7fdd147d1f50>, <rdkit.Chem.rdchem.Mol object at 0x7fdd147d1af0>, <rdkit.Chem.rdchem.Mol object at 0x7fdd147d1700>, '.', <rdkit.Chem.rdchem.Mol object at 0x7fdd147d28f0>, <rdkit.Chem.rdchem.Mol object at 0x7fdd147d0e40>, <rdkit.Chem.rdchem.Mol object at 0x7fdd147d0dd0>, <rdkit.Chem.rdchem.Mol object at 0x7fdd147d25e0>]","[0, 0, 0, 0, 5600, 5601, 5602, 5603, 5604, 5605, 5606, 5607, 1, 5608, 5609, 5610, 5611]"
PJ2,m-ITIC,-5.14,-3.33,-5.526666666666667,-3.8515384615384622,0.667,CF,DIO,130.0,PEDOT:PSS,PDINO,10.34,10.34,0.988,62.3,"[<rdkit.Chem.rdchem.Mol object at 0x7fdd147d2110>, <rdkit.Chem.rdchem.Mol object at 0x7fdd147d0eb0>, <rdkit.Chem.rdchem.Mol object at 0x7fdd147d0cf0>, <rdkit.Chem.rdchem.Mol object at 0x7fdd147d0a50>, <rdkit.Chem.rdchem.Mol object at 0x7fdd147d0660>, <rdkit.Chem.rdchem.Mol object at 0x7fdd147d2ce0>]","[<rdkit.Chem.rdchem.Mol object at 0x7fdd147d0f90>, <rdkit.Chem.rdchem.Mol object at 0x7fdd147d0d60>, <rdkit.Chem.rdchem.Mol object at 0x7fdd147d2880>, <rdkit.Chem.rdchem.Mol object at 0x7fdd147d1000>, <rdkit.Chem.rdchem.Mol object at 0x7fdd147d1ee0>]","[<rdkit.Chem.rdchem.Mol object at 0x7fdd147d2110>, <rdkit.Chem.rdchem.Mol object at 0x7fdd147d0eb0>, <rdkit.Chem.rdchem.Mol object at 0x7fdd147d0cf0>, <rdkit.Chem.rdchem.Mol object at 0x7fdd147d0a50>, <rdkit.Chem.rdchem.Mol object at 0x7fdd147d0660>, <rdkit.Chem.rdchem.Mol object at 0x7fdd147d2ce0>, '.', <rdkit.Chem.rdchem.Mol object at 0x7fdd147d0f90>, <rdkit.Chem.rdchem.Mol object at 0x7fdd147d0d60>, <rdkit.Chem.rdchem.Mol object at 0x7fdd147d2880>, <rdkit.Chem.rdchem.Mol object at 0x7fdd147d1000>, <rdkit.Chem.rdchem.Mol object at 0x7fdd147d1ee0>]","[0, 0, 0, 0, 0, 5612, 5613, 5614, 5615, 5616, 5617, 1, 5618, 5619, 5620, 5621, 5622]"