Donor,Acceptor,HOMO_D_eV,LUMO_D_eV,HOMO_A_eV,LUMO_A_eV,D_A_ratio_m_m,solvent,solvent_additive,annealing_temperature,hole_contact_layer,electron_contact_layer,PCE_percent,calc_PCE_percent,Voc_V,FF_percent,Donor_BRICS,Acceptor_BRICS,DA_pair_BRICS,DA_tokenized_BRICS
PBDB-T,SiIDT-IC,-5.297714285714285,-3.4170000000000003,-5.47,-3.78,1.0,CB,_,110.0,MoOx,PFN-Br,8.16,8.16,0.92,65.56,"[<rdkit.Chem.rdchem.Mol object at 0x7fdd14792260>, <rdkit.Chem.rdchem.Mol object at 0x7fdd14791ee0>, <rdkit.Chem.rdchem.Mol object at 0x7fdd14791fc0>, <rdkit.Chem.rdchem.Mol object at 0x7fdd14792ea0>, <rdkit.Chem.rdchem.Mol object at 0x7fdd14793990>]","[<rdkit.Chem.rdchem.Mol object at 0x7fdd14793bc0>, <rdkit.Chem.rdchem.Mol object at 0x7fdd147921f0>, <rdkit.Chem.rdchem.Mol object at 0x7fdd147926c0>, <rdkit.Chem.rdchem.Mol object at 0x7fdd14793680>, <rdkit.Chem.rdchem.Mol object at 0x7fdd14792180>]","[<rdkit.Chem.rdchem.Mol object at 0x7fdd14792260>, <rdkit.Chem.rdchem.Mol object at 0x7fdd14791ee0>, <rdkit.Chem.rdchem.Mol object at 0x7fdd14791fc0>, <rdkit.Chem.rdchem.Mol object at 0x7fdd14792ea0>, <rdkit.Chem.rdchem.Mol object at 0x7fdd14793990>, '.', <rdkit.Chem.rdchem.Mol object at 0x7fdd14793bc0>, <rdkit.Chem.rdchem.Mol object at 0x7fdd147921f0>, <rdkit.Chem.rdchem.Mol object at 0x7fdd147926c0>, <rdkit.Chem.rdchem.Mol object at 0x7fdd14793680>, <rdkit.Chem.rdchem.Mol object at 0x7fdd14792180>]","[0, 0, 0, 0, 0, 0, 4959, 4960, 4961, 4962, 4963, 1, 4964, 4965, 4966, 4967, 4968]"
PBDB-T,IDIC,-5.297714285714285,-3.4170000000000003,-5.706,-4.002666666666667,1.0,CB,_,110.0,MoOx,PFN-Br,8.83,8.84,0.81,65.36,"[<rdkit.Chem.rdchem.Mol object at 0x7fdd14791b60>, <rdkit.Chem.rdchem.Mol object at 0x7fdd147910e0>, <rdkit.Chem.rdchem.Mol object at 0x7fdd14792f10>, <rdkit.Chem.rdchem.Mol object at 0x7fdd14792f80>, <rdkit.Chem.rdchem.Mol object at 0x7fdd147936f0>]","[<rdkit.Chem.rdchem.Mol object at 0x7fdd147938b0>, <rdkit.Chem.rdchem.Mol object at 0x7fdd14791380>, <rdkit.Chem.rdchem.Mol object at 0x7fdd14793060>, <rdkit.Chem.rdchem.Mol object at 0x7fdd14793d10>]","[<rdkit.Chem.rdchem.Mol object at 0x7fdd14791b60>, <rdkit.Chem.rdchem.Mol object at 0x7fdd147910e0>, <rdkit.Chem.rdchem.Mol object at 0x7fdd14792f10>, <rdkit.Chem.rdchem.Mol object at 0x7fdd14792f80>, <rdkit.Chem.rdchem.Mol object at 0x7fdd147936f0>, '.', <rdkit.Chem.rdchem.Mol object at 0x7fdd147938b0>, <rdkit.Chem.rdchem.Mol object at 0x7fdd14791380>, <rdkit.Chem.rdchem.Mol object at 0x7fdd14793060>, <rdkit.Chem.rdchem.Mol object at 0x7fdd14793d10>]","[0, 0, 0, 0, 0, 0, 0, 4969, 4970, 4971, 4972, 4973, 1, 4974, 4975, 4976, 4977]"
PBDB-T,IDTBOR,-5.297714285714285,-3.4170000000000003,-5.49,-3.93,0.5,CB,_,130.0,MoOx,ZnO/PFN-Br,7.74,7.78,0.89,54.67,"[<rdkit.Chem.rdchem.Mol object at 0x7fdd14791a80>, <rdkit.Chem.rdchem.Mol object at 0x7fdd14790350>, <rdkit.Chem.rdchem.Mol object at 0x7fdd14791700>, <rdkit.Chem.rdchem.Mol object at 0x7fdd14793300>, <rdkit.Chem.rdchem.Mol object at 0x7fdd147a4350>]","[<rdkit.Chem.rdchem.Mol object at 0x7fdd14793b50>, <rdkit.Chem.rdchem.Mol object at 0x7fdd147937d0>, <rdkit.Chem.rdchem.Mol object at 0x7fdd14790510>, <rdkit.Chem.rdchem.Mol object at 0x7fdd14791690>, <rdkit.Chem.rdchem.Mol object at 0x7fdd14793760>]","[<rdkit.Chem.rdchem.Mol object at 0x7fdd14791a80>, <rdkit.Chem.rdchem.Mol object at 0x7fdd14790350>, <rdkit.Chem.rdchem.Mol object at 0x7fdd14791700>, <rdkit.Chem.rdchem.Mol object at 0x7fdd14793300>, <rdkit.Chem.rdchem.Mol object at 0x7fdd147a4350>, '.', <rdkit.Chem.rdchem.Mol object at 0x7fdd14793b50>, <rdkit.Chem.rdchem.Mol object at 0x7fdd147937d0>, <rdkit.Chem.rdchem.Mol object at 0x7fdd14790510>, <rdkit.Chem.rdchem.Mol object at 0x7fdd14791690>, <rdkit.Chem.rdchem.Mol object at 0x7fdd14793760>]","[0, 0, 0, 0, 0, 0, 4978, 4979, 4980, 4981, 4982, 1, 4983, 4984, 4985, 4986, 4987]"
PBDB-T,IDTBSR,-5.297714285714285,-3.4170000000000003,-5.41,-3.88,0.5,CB,_,130.0,MoOx,ZnO/PFN-Br,6.95,6.94,0.95,52.38,"[<rdkit.Chem.rdchem.Mol object at 0x7fdd147914d0>, <rdkit.Chem.rdchem.Mol object at 0x7fdd14793450>, <rdkit.Chem.rdchem.Mol object at 0x7fdd14793a70>, <rdkit.Chem.rdchem.Mol object at 0x7fdd14793ca0>, <rdkit.Chem.rdchem.Mol object at 0x7fdd147a4190>]","[<rdkit.Chem.rdchem.Mol object at 0x7fdd14793f40>, <rdkit.Chem.rdchem.Mol object at 0x7fdd14793d80>, <rdkit.Chem.rdchem.Mol object at 0x7fdd14793610>, <rdkit.Chem.rdchem.Mol object at 0x7fdd14792500>, <rdkit.Chem.rdchem.Mol object at 0x7fdd14793920>]","[<rdkit.Chem.rdchem.Mol object at 0x7fdd147914d0>, <rdkit.Chem.rdchem.Mol object at 0x7fdd14793450>, <rdkit.Chem.rdchem.Mol object at 0x7fdd14793a70>, <rdkit.Chem.rdchem.Mol object at 0x7fdd14793ca0>, <rdkit.Chem.rdchem.Mol object at 0x7fdd147a4190>, '.', <rdkit.Chem.rdchem.Mol object at 0x7fdd14793f40>, <rdkit.Chem.rdchem.Mol object at 0x7fdd14793d80>, <rdkit.Chem.rdchem.Mol object at 0x7fdd14793610>, <rdkit.Chem.rdchem.Mol object at 0x7fdd14792500>, <rdkit.Chem.rdchem.Mol object at 0x7fdd14793920>]","[0, 0, 0, 0, 0, 0, 4988, 4989, 4990, 4991, 4992, 1, 4993, 4994, 4995, 4996, 4997]"
PBDB-T,TTIC,-5.297714285714285,-3.4170000000000003,-5.54,-4.109999999999999,0.667,DCB,DIO,125.0,MoOx,ZnO,10.61,10.63,0.77,62.0,"[<rdkit.Chem.rdchem.Mol object at 0x7fdd14792b90>, <rdkit.Chem.rdchem.Mol object at 0x7fdd14792110>, <rdkit.Chem.rdchem.Mol object at 0x7fdd147906d0>, <rdkit.Chem.rdchem.Mol object at 0x7fdd147a4820>, <rdkit.Chem.rdchem.Mol object at 0x7fdd147a4120>]","[<rdkit.Chem.rdchem.Mol object at 0x7fdd14793840>, <rdkit.Chem.rdchem.Mol object at 0x7fdd14791a10>, <rdkit.Chem.rdchem.Mol object at 0x7fdd147931b0>, <rdkit.Chem.rdchem.Mol object at 0x7fdd147919a0>, <rdkit.Chem.rdchem.Mol object at 0x7fdd147a42e0>]","[<rdkit.Chem.rdchem.Mol object at 0x7fdd14792b90>, <rdkit.Chem.rdchem.Mol object at 0x7fdd14792110>, <rdkit.Chem.rdchem.Mol object at 0x7fdd147906d0>, <rdkit.Chem.rdchem.Mol object at 0x7fdd147a4820>, <rdkit.Chem.rdchem.Mol object at 0x7fdd147a4120>, '.', <rdkit.Chem.rdchem.Mol object at 0x7fdd14793840>, <rdkit.Chem.rdchem.Mol object at 0x7fdd14791a10>, <rdkit.Chem.rdchem.Mol object at 0x7fdd147931b0>, <rdkit.Chem.rdchem.Mol object at 0x7fdd147919a0>, <rdkit.Chem.rdchem.Mol object at 0x7fdd147a42e0>]","[0, 0, 0, 0, 0, 0, 4998, 4999, 5000, 5001, 5002, 1, 5003, 5004, 5005, 5006, 5007]"
PBDB-T,TTIC-M,-5.297714285714285,-3.4170000000000003,-5.49,-4.03,0.667,DCB,DIO,175.0,MoOx,ZnO,11.48,11.49,0.8,70.0,"[<rdkit.Chem.rdchem.Mol object at 0x7fdd147909e0>, <rdkit.Chem.rdchem.Mol object at 0x7fdd147a4c10>, <rdkit.Chem.rdchem.Mol object at 0x7fdd147a4eb0>, <rdkit.Chem.rdchem.Mol object at 0x7fdd147a4b30>, <rdkit.Chem.rdchem.Mol object at 0x7fdd147a51c0>]","[<rdkit.Chem.rdchem.Mol object at 0x7fdd14793c30>, <rdkit.Chem.rdchem.Mol object at 0x7fdd14793df0>, <rdkit.Chem.rdchem.Mol object at 0x7fdd147918c0>, <rdkit.Chem.rdchem.Mol object at 0x7fdd14792960>, <rdkit.Chem.rdchem.Mol object at 0x7fdd147a4660>]","[<rdkit.Chem.rdchem.Mol object at 0x7fdd147909e0>, <rdkit.Chem.rdchem.Mol object at 0x7fdd147a4c10>, <rdkit.Chem.rdchem.Mol object at 0x7fdd147a4eb0>, <rdkit.Chem.rdchem.Mol object at 0x7fdd147a4b30>, <rdkit.Chem.rdchem.Mol object at 0x7fdd147a51c0>, '.', <rdkit.Chem.rdchem.Mol object at 0x7fdd14793c30>, <rdkit.Chem.rdchem.Mol object at 0x7fdd14793df0>, <rdkit.Chem.rdchem.Mol object at 0x7fdd147918c0>, <rdkit.Chem.rdchem.Mol object at 0x7fdd14792960>, <rdkit.Chem.rdchem.Mol object at 0x7fdd147a4660>]","[0, 0, 0, 0, 0, 0, 5008, 5009, 5010, 5011, 5012, 1, 5013, 5014, 5015, 5016, 5017]"
J52,ITIC,-5.218571428571429,-3.341428571428572,-5.574146341463415,-3.915,0.667,CF,_,25.0,PEDOT:PSS,PDINO,3.78,3.77,0.803,43.2,"[<rdkit.Chem.rdchem.Mol object at 0x7fdd14792c70>, <rdkit.Chem.rdchem.Mol object at 0x7fdd14793e60>, <rdkit.Chem.rdchem.Mol object at 0x7fdd147a45f0>, <rdkit.Chem.rdchem.Mol object at 0x7fdd147a4d60>, <rdkit.Chem.rdchem.Mol object at 0x7fdd147a4a50>, <rdkit.Chem.rdchem.Mol object at 0x7fdd147a4740>]","[<rdkit.Chem.rdchem.Mol object at 0x7fdd14793ed0>, <rdkit.Chem.rdchem.Mol object at 0x7fdd147a5150>, <rdkit.Chem.rdchem.Mol object at 0x7fdd14792ff0>, <rdkit.Chem.rdchem.Mol object at 0x7fdd14793ae0>, <rdkit.Chem.rdchem.Mol object at 0x7fdd147a5230>]","[<rdkit.Chem.rdchem.Mol object at 0x7fdd14792c70>, <rdkit.Chem.rdchem.Mol object at 0x7fdd14793e60>, <rdkit.Chem.rdchem.Mol object at 0x7fdd147a45f0>, <rdkit.Chem.rdchem.Mol object at 0x7fdd147a4d60>, <rdkit.Chem.rdchem.Mol object at 0x7fdd147a4a50>, <rdkit.Chem.rdchem.Mol object at 0x7fdd147a4740>, '.', <rdkit.Chem.rdchem.Mol object at 0x7fdd14793ed0>, <rdkit.Chem.rdchem.Mol object at 0x7fdd147a5150>, <rdkit.Chem.rdchem.Mol object at 0x7fdd14792ff0>, <rdkit.Chem.rdchem.Mol object at 0x7fdd14793ae0>, <rdkit.Chem.rdchem.Mol object at 0x7fdd147a5230>]","[0, 0, 0, 0, 0, 5018, 5019, 5020, 5021, 5022, 5023, 1, 5024, 5025, 5026, 5027, 5028]"
J52-Cl,ITIC,-5.53,-5.38,-5.574146341463415,-3.915,0.667,CF,_,25.0,PEDOT:PSS,PDINO,11.53,11.52,0.956,70.2,"[<rdkit.Chem.rdchem.Mol object at 0x7fdd14791e00>, <rdkit.Chem.rdchem.Mol object at 0x7fdd14793530>, <rdkit.Chem.rdchem.Mol object at 0x7fdd147a4900>, <rdkit.Chem.rdchem.Mol object at 0x7fdd147a5540>, <rdkit.Chem.rdchem.Mol object at 0x7fdd14791c40>, <rdkit.Chem.rdchem.Mol object at 0x7fdd147a4ba0>, <rdkit.Chem.rdchem.Mol object at 0x7fdd147a4e40>]","[<rdkit.Chem.rdchem.Mol object at 0x7fdd147a4580>, <rdkit.Chem.rdchem.Mol object at 0x7fdd147a4890>, <rdkit.Chem.rdchem.Mol object at 0x7fdd14793a00>, <rdkit.Chem.rdchem.Mol object at 0x7fdd147a5070>, <rdkit.Chem.rdchem.Mol object at 0x7fdd147a4ac0>]","[<rdkit.Chem.rdchem.Mol object at 0x7fdd14791e00>, <rdkit.Chem.rdchem.Mol object at 0x7fdd14793530>, <rdkit.Chem.rdchem.Mol object at 0x7fdd147a4900>, <rdkit.Chem.rdchem.Mol object at 0x7fdd147a5540>, <rdkit.Chem.rdchem.Mol object at 0x7fdd14791c40>, <rdkit.Chem.rdchem.Mol object at 0x7fdd147a4ba0>, <rdkit.Chem.rdchem.Mol object at 0x7fdd147a4e40>, '.', <rdkit.Chem.rdchem.Mol object at 0x7fdd147a4580>, <rdkit.Chem.rdchem.Mol object at 0x7fdd147a4890>, <rdkit.Chem.rdchem.Mol object at 0x7fdd14793a00>, <rdkit.Chem.rdchem.Mol object at 0x7fdd147a5070>, <rdkit.Chem.rdchem.Mol object at 0x7fdd147a4ac0>]","[0, 0, 0, 0, 5029, 5030, 5031, 5032, 5033, 5034, 5035, 1, 5036, 5037, 5038, 5039, 5040]"
PBDB-T,IDTT2F,-5.297714285714285,-3.4170000000000003,-5.57,-4.03,1.0,DCB,_,25.0,MoOx,ZnO,8.85,8.85,0.81,59.0,"[<rdkit.Chem.rdchem.Mol object at 0x7fdd14792a40>, <rdkit.Chem.rdchem.Mol object at 0x7fdd147a40b0>, <rdkit.Chem.rdchem.Mol object at 0x7fdd147a50e0>, <rdkit.Chem.rdchem.Mol object at 0x7fdd147a4970>, <rdkit.Chem.rdchem.Mol object at 0x7fdd147a60a0>]","[<rdkit.Chem.rdchem.Mol object at 0x7fdd147a6110>, <rdkit.Chem.rdchem.Mol object at 0x7fdd147a4270>, <rdkit.Chem.rdchem.Mol object at 0x7fdd147a5bd0>, <rdkit.Chem.rdchem.Mol object at 0x7fdd147a5cb0>, <rdkit.Chem.rdchem.Mol object at 0x7fdd147a43c0>, <rdkit.Chem.rdchem.Mol object at 0x7fdd147a54d0>]","[<rdkit.Chem.rdchem.Mol object at 0x7fdd14792a40>, <rdkit.Chem.rdchem.Mol object at 0x7fdd147a40b0>, <rdkit.Chem.rdchem.Mol object at 0x7fdd147a50e0>, <rdkit.Chem.rdchem.Mol object at 0x7fdd147a4970>, <rdkit.Chem.rdchem.Mol object at 0x7fdd147a60a0>, '.', <rdkit.Chem.rdchem.Mol object at 0x7fdd147a6110>, <rdkit.Chem.rdchem.Mol object at 0x7fdd147a4270>, <rdkit.Chem.rdchem.Mol object at 0x7fdd147a5bd0>, <rdkit.Chem.rdchem.Mol object at 0x7fdd147a5cb0>, <rdkit.Chem.rdchem.Mol object at 0x7fdd147a43c0>, <rdkit.Chem.rdchem.Mol object at 0x7fdd147a54d0>]","[0, 0, 0, 0, 0, 5041, 5042, 5043, 5044, 5045, 1, 5046, 5047, 5048, 5049, 5050, 5051]"
PBDB-T,IDTOT2F,-5.297714285714285,-3.4170000000000003,-5.54,-3.94,1.0,DCB,_,25.0,MoOx,ZnO,12.79,12.77,0.85,72.0,"[<rdkit.Chem.rdchem.Mol object at 0x7fdd147928f0>, <rdkit.Chem.rdchem.Mol object at 0x7fdd147a5c40>, <rdkit.Chem.rdchem.Mol object at 0x7fdd147a57e0>, <rdkit.Chem.rdchem.Mol object at 0x7fdd147a59a0>, <rdkit.Chem.rdchem.Mol object at 0x7fdd147a65e0>]","[<rdkit.Chem.rdchem.Mol object at 0x7fdd147933e0>, <rdkit.Chem.rdchem.Mol object at 0x7fdd147a68f0>, <rdkit.Chem.rdchem.Mol object at 0x7fdd147a63b0>, <rdkit.Chem.rdchem.Mol object at 0x7fdd147a6810>, <rdkit.Chem.rdchem.Mol object at 0x7fdd147a61f0>, <rdkit.Chem.rdchem.Mol object at 0x7fdd147a5b60>, <rdkit.Chem.rdchem.Mol object at 0x7fdd147a55b0>, <rdkit.Chem.rdchem.Mol object at 0x7fdd147a5690>]","[<rdkit.Chem.rdchem.Mol object at 0x7fdd147928f0>, <rdkit.Chem.rdchem.Mol object at 0x7fdd147a5c40>, <rdkit.Chem.rdchem.Mol object at 0x7fdd147a57e0>, <rdkit.Chem.rdchem.Mol object at 0x7fdd147a59a0>, <rdkit.Chem.rdchem.Mol object at 0x7fdd147a65e0>, '.', <rdkit.Chem.rdchem.Mol object at 0x7fdd147933e0>, <rdkit.Chem.rdchem.Mol object at 0x7fdd147a68f0>, <rdkit.Chem.rdchem.Mol object at 0x7fdd147a63b0>, <rdkit.Chem.rdchem.Mol object at 0x7fdd147a6810>, <rdkit.Chem.rdchem.Mol object at 0x7fdd147a61f0>, <rdkit.Chem.rdchem.Mol object at 0x7fdd147a5b60>, <rdkit.Chem.rdchem.Mol object at 0x7fdd147a55b0>, <rdkit.Chem.rdchem.Mol object at 0x7fdd147a5690>]","[0, 0, 0, 5052, 5053, 5054, 5055, 5056, 1, 5057, 5058, 5059, 5060, 5061, 5062, 5063, 5064]"
PBDB-T,IDTIC,-5.297714285714285,-3.4170000000000003,-5.885,-3.91,1.0,CB,DIO,25.0,MoOx,ZnO,6.05,6.03,0.89,61.9,"[<rdkit.Chem.rdchem.Mol object at 0x7fdd14792030>, <rdkit.Chem.rdchem.Mol object at 0x7fdd147a5460>, <rdkit.Chem.rdchem.Mol object at 0x7fdd147a52a0>, <rdkit.Chem.rdchem.Mol object at 0x7fdd147a6180>, <rdkit.Chem.rdchem.Mol object at 0x7fdd147a6c00>]","[<rdkit.Chem.rdchem.Mol object at 0x7fdd147a6e30>, <rdkit.Chem.rdchem.Mol object at 0x7fdd147a5700>, <rdkit.Chem.rdchem.Mol object at 0x7fdd147a6030>, <rdkit.Chem.rdchem.Mol object at 0x7fdd147a5e00>]","[<rdkit.Chem.rdchem.Mol object at 0x7fdd14792030>, <rdkit.Chem.rdchem.Mol object at 0x7fdd147a5460>, <rdkit.Chem.rdchem.Mol object at 0x7fdd147a52a0>, <rdkit.Chem.rdchem.Mol object at 0x7fdd147a6180>, <rdkit.Chem.rdchem.Mol object at 0x7fdd147a6c00>, '.', <rdkit.Chem.rdchem.Mol object at 0x7fdd147a6e30>, <rdkit.Chem.rdchem.Mol object at 0x7fdd147a5700>, <rdkit.Chem.rdchem.Mol object at 0x7fdd147a6030>, <rdkit.Chem.rdchem.Mol object at 0x7fdd147a5e00>]","[0, 0, 0, 0, 0, 0, 0, 5065, 5066, 5067, 5068, 5069, 1, 5070, 5071, 5072, 5073]"
PBDB-T,ITIC,-5.297714285714285,-3.4170000000000003,-5.574146341463415,-3.915,1.0,CB,_,25.0,PEDOT:PSS,N719:PrC60MAI,9.94,9.94,0.897,65.5,"[<rdkit.Chem.rdchem.Mol object at 0x7fdd147a6420>, <rdkit.Chem.rdchem.Mol object at 0x7fdd147a6340>, <rdkit.Chem.rdchem.Mol object at 0x7fdd147a6880>, <rdkit.Chem.rdchem.Mol object at 0x7fdd147a5e70>, <rdkit.Chem.rdchem.Mol object at 0x7fdd147a6650>]","[<rdkit.Chem.rdchem.Mol object at 0x7fdd147a7290>, <rdkit.Chem.rdchem.Mol object at 0x7fdd147a47b0>, <rdkit.Chem.rdchem.Mol object at 0x7fdd147a4dd0>, <rdkit.Chem.rdchem.Mol object at 0x7fdd147a5000>, <rdkit.Chem.rdchem.Mol object at 0x7fdd147a5380>]","[<rdkit.Chem.rdchem.Mol object at 0x7fdd147a6420>, <rdkit.Chem.rdchem.Mol object at 0x7fdd147a6340>, <rdkit.Chem.rdchem.Mol object at 0x7fdd147a6880>, <rdkit.Chem.rdchem.Mol object at 0x7fdd147a5e70>, <rdkit.Chem.rdchem.Mol object at 0x7fdd147a6650>, '.', <rdkit.Chem.rdchem.Mol object at 0x7fdd147a7290>, <rdkit.Chem.rdchem.Mol object at 0x7fdd147a47b0>, <rdkit.Chem.rdchem.Mol object at 0x7fdd147a4dd0>, <rdkit.Chem.rdchem.Mol object at 0x7fdd147a5000>, <rdkit.Chem.rdchem.Mol object at 0x7fdd147a5380>]","[0, 0, 0, 0, 0, 0, 5074, 5075, 5076, 5077, 5078, 1, 5079, 5080, 5081, 5082, 5083]"
PBDB-T,ITCT,-5.297714285714285,-3.4170000000000003,-5.596666666666667,-3.796666666666667,1.0,CB,_,25.0,PEDOT:PSS,N719:PrC60MAI,10.99,10.99,0.85,72.3,"[<rdkit.Chem.rdchem.Mol object at 0x7fdd147a5310>, <rdkit.Chem.rdchem.Mol object at 0x7fdd147a6f80>, <rdkit.Chem.rdchem.Mol object at 0x7fdd147a6ea0>, <rdkit.Chem.rdchem.Mol object at 0x7fdd147a5fc0>, <rdkit.Chem.rdchem.Mol object at 0x7fdd147a7530>]","[<rdkit.Chem.rdchem.Mol object at 0x7fdd147a7760>, <rdkit.Chem.rdchem.Mol object at 0x7fdd147a5af0>, <rdkit.Chem.rdchem.Mol object at 0x7fdd147a4f90>, <rdkit.Chem.rdchem.Mol object at 0x7fdd147a4430>, <rdkit.Chem.rdchem.Mol object at 0x7fdd147a70d0>]","[<rdkit.Chem.rdchem.Mol object at 0x7fdd147a5310>, <rdkit.Chem.rdchem.Mol object at 0x7fdd147a6f80>, <rdkit.Chem.rdchem.Mol object at 0x7fdd147a6ea0>, <rdkit.Chem.rdchem.Mol object at 0x7fdd147a5fc0>, <rdkit.Chem.rdchem.Mol object at 0x7fdd147a7530>, '.', <rdkit.Chem.rdchem.Mol object at 0x7fdd147a7760>, <rdkit.Chem.rdchem.Mol object at 0x7fdd147a5af0>, <rdkit.Chem.rdchem.Mol object at 0x7fdd147a4f90>, <rdkit.Chem.rdchem.Mol object at 0x7fdd147a4430>, <rdkit.Chem.rdchem.Mol object at 0x7fdd147a70d0>]","[0, 0, 0, 0, 0, 0, 5084, 5085, 5086, 5087, 5088, 1, 5089, 5090, 5091, 5092, 5093]"
P3HT,IDT-RCN,-5.057777777777777,-2.989444444444445,-5.62,-3.75,1.25,CB,CN,25.0,PEDOT:PSS,Ca,3.42,3.44,0.69,63.0,"[<rdkit.Chem.rdchem.Mol object at 0x7fdd147a6d50>, <rdkit.Chem.rdchem.Mol object at 0x7fdd147a5770>, <rdkit.Chem.rdchem.Mol object at 0x7fdd147a6c70>, <rdkit.Chem.rdchem.Mol object at 0x7fdd147a7220>]","[<rdkit.Chem.rdchem.Mol object at 0x7fdd147a69d0>, <rdkit.Chem.rdchem.Mol object at 0x7fdd147a7370>, <rdkit.Chem.rdchem.Mol object at 0x7fdd147a4200>, <rdkit.Chem.rdchem.Mol object at 0x7fdd147a5d90>]","[<rdkit.Chem.rdchem.Mol object at 0x7fdd147a6d50>, <rdkit.Chem.rdchem.Mol object at 0x7fdd147a5770>, <rdkit.Chem.rdchem.Mol object at 0x7fdd147a6c70>, <rdkit.Chem.rdchem.Mol object at 0x7fdd147a7220>, '.', <rdkit.Chem.rdchem.Mol object at 0x7fdd147a69d0>, <rdkit.Chem.rdchem.Mol object at 0x7fdd147a7370>, <rdkit.Chem.rdchem.Mol object at 0x7fdd147a4200>, <rdkit.Chem.rdchem.Mol object at 0x7fdd147a5d90>]","[0, 0, 0, 0, 0, 0, 0, 0, 5094, 5095, 5096, 5097, 1, 5098, 5099, 5100, 5101]"
P3HT,IDT-CA,-5.057777777777777,-2.989444444444445,-5.59,-3.64,1.25,CB,CN,25.0,PEDOT:PSS,Ca,4.19,4.18,0.84,64.0,"[<rdkit.Chem.rdchem.Mol object at 0x7fdd147a6ab0>, <rdkit.Chem.rdchem.Mol object at 0x7fdd147a7680>, <rdkit.Chem.rdchem.Mol object at 0x7fdd147a6b20>, <rdkit.Chem.rdchem.Mol object at 0x7fdd147a67a0>]","[<rdkit.Chem.rdchem.Mol object at 0x7fdd147a7610>, <rdkit.Chem.rdchem.Mol object at 0x7fdd147a6b90>, <rdkit.Chem.rdchem.Mol object at 0x7fdd147a6570>, <rdkit.Chem.rdchem.Mol object at 0x7fdd147a76f0>, <rdkit.Chem.rdchem.Mol object at 0x7fdd147a7300>, <rdkit.Chem.rdchem.Mol object at 0x7fdd147a4040>, <rdkit.Chem.rdchem.Mol object at 0x7fdd147a6960>]","[<rdkit.Chem.rdchem.Mol object at 0x7fdd147a6ab0>, <rdkit.Chem.rdchem.Mol object at 0x7fdd147a7680>, <rdkit.Chem.rdchem.Mol object at 0x7fdd147a6b20>, <rdkit.Chem.rdchem.Mol object at 0x7fdd147a67a0>, '.', <rdkit.Chem.rdchem.Mol object at 0x7fdd147a7610>, <rdkit.Chem.rdchem.Mol object at 0x7fdd147a6b90>, <rdkit.Chem.rdchem.Mol object at 0x7fdd147a6570>, <rdkit.Chem.rdchem.Mol object at 0x7fdd147a76f0>, <rdkit.Chem.rdchem.Mol object at 0x7fdd147a7300>, <rdkit.Chem.rdchem.Mol object at 0x7fdd147a4040>, <rdkit.Chem.rdchem.Mol object at 0x7fdd147a6960>]","[0, 0, 0, 0, 0, 5102, 5103, 5104, 5105, 1, 5106, 5107, 5108, 5109, 5110, 5111, 5112]"