Donor,Acceptor,HOMO_D_eV,LUMO_D_eV,HOMO_A_eV,LUMO_A_eV,D_A_ratio_m_m,solvent,solvent_additive,annealing_temperature,hole_contact_layer,electron_contact_layer,PCE_percent,calc_PCE_percent,Voc_V,FF_percent,Donor_BRICS,Acceptor_BRICS,DA_pair_BRICS,DA_tokenized_BRICS
J71,ITVfIC,-5.353333333333333,-3.4318181818181825,-5.56,-4.01,0.833,CF,_,160.0,PEDOT:PSS,PDINO,9.72,9.72,0.84,58.67,"[<rdkit.Chem.rdchem.Mol object at 0x7fdd1481a180>, <rdkit.Chem.rdchem.Mol object at 0x7fdd1481bae0>, <rdkit.Chem.rdchem.Mol object at 0x7fdd1481a3b0>, <rdkit.Chem.rdchem.Mol object at 0x7fdd1481ab20>, <rdkit.Chem.rdchem.Mol object at 0x7fdd1481bd10>, <rdkit.Chem.rdchem.Mol object at 0x7fdd1481bed0>]","[<rdkit.Chem.rdchem.Mol object at 0x7fdd1481ae30>, <rdkit.Chem.rdchem.Mol object at 0x7fdd1481ba70>, <rdkit.Chem.rdchem.Mol object at 0x7fdd1481b6f0>, <rdkit.Chem.rdchem.Mol object at 0x7fdd1481b4c0>, <rdkit.Chem.rdchem.Mol object at 0x7fdd1481be60>]","[<rdkit.Chem.rdchem.Mol object at 0x7fdd1481a180>, <rdkit.Chem.rdchem.Mol object at 0x7fdd1481bae0>, <rdkit.Chem.rdchem.Mol object at 0x7fdd1481a3b0>, <rdkit.Chem.rdchem.Mol object at 0x7fdd1481ab20>, <rdkit.Chem.rdchem.Mol object at 0x7fdd1481bd10>, <rdkit.Chem.rdchem.Mol object at 0x7fdd1481bed0>, '.', <rdkit.Chem.rdchem.Mol object at 0x7fdd1481ae30>, <rdkit.Chem.rdchem.Mol object at 0x7fdd1481ba70>, <rdkit.Chem.rdchem.Mol object at 0x7fdd1481b6f0>, <rdkit.Chem.rdchem.Mol object at 0x7fdd1481b4c0>, <rdkit.Chem.rdchem.Mol object at 0x7fdd1481be60>]","[0, 0, 0, 0, 0, 826, 827, 828, 829, 830, 831, 1, 832, 833, 834, 835, 836]"
J71,ITVIC,-5.353333333333333,-3.4318181818181825,-5.46,-3.97,0.833,CF,_,160.0,PEDOT:PSS,PDINO,7.34,7.42,0.89,57.64,"[<rdkit.Chem.rdchem.Mol object at 0x7fdd1481a110>, <rdkit.Chem.rdchem.Mol object at 0x7fdd1481a570>, <rdkit.Chem.rdchem.Mol object at 0x7fdd1481ac70>, <rdkit.Chem.rdchem.Mol object at 0x7fdd1481bf40>, <rdkit.Chem.rdchem.Mol object at 0x7fdd1481a6c0>, <rdkit.Chem.rdchem.Mol object at 0x7fdd1480c740>]","[<rdkit.Chem.rdchem.Mol object at 0x7fdd14818dd0>, <rdkit.Chem.rdchem.Mol object at 0x7fdd1480cac0>, <rdkit.Chem.rdchem.Mol object at 0x7fdd1481b920>, <rdkit.Chem.rdchem.Mol object at 0x7fdd1481a260>, <rdkit.Chem.rdchem.Mol object at 0x7fdd148194d0>, <rdkit.Chem.rdchem.Mol object at 0x7fdd1480ca50>]","[<rdkit.Chem.rdchem.Mol object at 0x7fdd1481a110>, <rdkit.Chem.rdchem.Mol object at 0x7fdd1481a570>, <rdkit.Chem.rdchem.Mol object at 0x7fdd1481ac70>, <rdkit.Chem.rdchem.Mol object at 0x7fdd1481bf40>, <rdkit.Chem.rdchem.Mol object at 0x7fdd1481a6c0>, <rdkit.Chem.rdchem.Mol object at 0x7fdd1480c740>, '.', <rdkit.Chem.rdchem.Mol object at 0x7fdd14818dd0>, <rdkit.Chem.rdchem.Mol object at 0x7fdd1480cac0>, <rdkit.Chem.rdchem.Mol object at 0x7fdd1481b920>, <rdkit.Chem.rdchem.Mol object at 0x7fdd1481a260>, <rdkit.Chem.rdchem.Mol object at 0x7fdd148194d0>, <rdkit.Chem.rdchem.Mol object at 0x7fdd1480ca50>]","[0, 0, 0, 0, 837, 838, 839, 840, 841, 842, 1, 843, 844, 845, 846, 847, 848]"
J71,MeIC2,-5.353333333333333,-3.4318181818181825,-5.56,-3.97,1.0,CF,_,150.0,PEDOT:PSS,PDIN,10.2,10.38,0.885,69.4,"[<rdkit.Chem.rdchem.Mol object at 0x7fdd1481bb50>, <rdkit.Chem.rdchem.Mol object at 0x7fdd1481a810>, <rdkit.Chem.rdchem.Mol object at 0x7fdd1481ad50>, <rdkit.Chem.rdchem.Mol object at 0x7fdd1481b680>, <rdkit.Chem.rdchem.Mol object at 0x7fdd1481b060>, <rdkit.Chem.rdchem.Mol object at 0x7fdd1480c3c0>]","[<rdkit.Chem.rdchem.Mol object at 0x7fdd14819bd0>, <rdkit.Chem.rdchem.Mol object at 0x7fdd1480c6d0>, <rdkit.Chem.rdchem.Mol object at 0x7fdd1481b290>, <rdkit.Chem.rdchem.Mol object at 0x7fdd1481af80>, <rdkit.Chem.rdchem.Mol object at 0x7fdd1480c430>]","[<rdkit.Chem.rdchem.Mol object at 0x7fdd1481bb50>, <rdkit.Chem.rdchem.Mol object at 0x7fdd1481a810>, <rdkit.Chem.rdchem.Mol object at 0x7fdd1481ad50>, <rdkit.Chem.rdchem.Mol object at 0x7fdd1481b680>, <rdkit.Chem.rdchem.Mol object at 0x7fdd1481b060>, <rdkit.Chem.rdchem.Mol object at 0x7fdd1480c3c0>, '.', <rdkit.Chem.rdchem.Mol object at 0x7fdd14819bd0>, <rdkit.Chem.rdchem.Mol object at 0x7fdd1480c6d0>, <rdkit.Chem.rdchem.Mol object at 0x7fdd1481b290>, <rdkit.Chem.rdchem.Mol object at 0x7fdd1481af80>, <rdkit.Chem.rdchem.Mol object at 0x7fdd1480c430>]","[0, 0, 0, 0, 0, 849, 850, 851, 852, 853, 854, 1, 855, 856, 857, 858, 859]"
J70,m-ITIC,-5.37,-2.91,-5.526666666666667,-3.8515384615384622,0.667,CF,_,150.0,PEDOT:PSS,PDINO,11.62,11.62,0.92,69.82,"[<rdkit.Chem.rdchem.Mol object at 0x7fdd1481aea0>, <rdkit.Chem.rdchem.Mol object at 0x7fdd1481bca0>, <rdkit.Chem.rdchem.Mol object at 0x7fdd1480cb30>, <rdkit.Chem.rdchem.Mol object at 0x7fdd1481a9d0>, <rdkit.Chem.rdchem.Mol object at 0x7fdd1480c820>, <rdkit.Chem.rdchem.Mol object at 0x7fdd1480cd60>]","[<rdkit.Chem.rdchem.Mol object at 0x7fdd14819fc0>, <rdkit.Chem.rdchem.Mol object at 0x7fdd1480c9e0>, <rdkit.Chem.rdchem.Mol object at 0x7fdd14819230>, <rdkit.Chem.rdchem.Mol object at 0x7fdd1480c970>, <rdkit.Chem.rdchem.Mol object at 0x7fdd1480cdd0>]","[<rdkit.Chem.rdchem.Mol object at 0x7fdd1481aea0>, <rdkit.Chem.rdchem.Mol object at 0x7fdd1481bca0>, <rdkit.Chem.rdchem.Mol object at 0x7fdd1480cb30>, <rdkit.Chem.rdchem.Mol object at 0x7fdd1481a9d0>, <rdkit.Chem.rdchem.Mol object at 0x7fdd1480c820>, <rdkit.Chem.rdchem.Mol object at 0x7fdd1480cd60>, '.', <rdkit.Chem.rdchem.Mol object at 0x7fdd14819fc0>, <rdkit.Chem.rdchem.Mol object at 0x7fdd1480c9e0>, <rdkit.Chem.rdchem.Mol object at 0x7fdd14819230>, <rdkit.Chem.rdchem.Mol object at 0x7fdd1480c970>, <rdkit.Chem.rdchem.Mol object at 0x7fdd1480cdd0>]","[0, 0, 0, 0, 0, 860, 861, 862, 863, 864, 865, 1, 866, 867, 868, 869, 870]"
J71,m-ITIC,-5.353333333333333,-3.4318181818181825,-5.526666666666667,-3.8515384615384622,0.667,CF,_,150.0,PEDOT:PSS,PDINO,12.05,12.05,0.944,70.59,"[<rdkit.Chem.rdchem.Mol object at 0x7fdd1481b300>, <rdkit.Chem.rdchem.Mol object at 0x7fdd1480ce40>, <rdkit.Chem.rdchem.Mol object at 0x7fdd1480c7b0>, <rdkit.Chem.rdchem.Mol object at 0x7fdd14818120>, <rdkit.Chem.rdchem.Mol object at 0x7fdd1480c580>, <rdkit.Chem.rdchem.Mol object at 0x7fdd1480d230>]","[<rdkit.Chem.rdchem.Mol object at 0x7fdd1480c660>, <rdkit.Chem.rdchem.Mol object at 0x7fdd1480c5f0>, <rdkit.Chem.rdchem.Mol object at 0x7fdd1480c0b0>, <rdkit.Chem.rdchem.Mol object at 0x7fdd1480c120>, <rdkit.Chem.rdchem.Mol object at 0x7fdd1480c4a0>]","[<rdkit.Chem.rdchem.Mol object at 0x7fdd1481b300>, <rdkit.Chem.rdchem.Mol object at 0x7fdd1480ce40>, <rdkit.Chem.rdchem.Mol object at 0x7fdd1480c7b0>, <rdkit.Chem.rdchem.Mol object at 0x7fdd14818120>, <rdkit.Chem.rdchem.Mol object at 0x7fdd1480c580>, <rdkit.Chem.rdchem.Mol object at 0x7fdd1480d230>, '.', <rdkit.Chem.rdchem.Mol object at 0x7fdd1480c660>, <rdkit.Chem.rdchem.Mol object at 0x7fdd1480c5f0>, <rdkit.Chem.rdchem.Mol object at 0x7fdd1480c0b0>, <rdkit.Chem.rdchem.Mol object at 0x7fdd1480c120>, <rdkit.Chem.rdchem.Mol object at 0x7fdd1480c4a0>]","[0, 0, 0, 0, 0, 871, 872, 873, 874, 875, 876, 1, 877, 878, 879, 880, 881]"
J72,m-ITIC,-5.42,-3.29,-5.526666666666667,-3.8515384615384622,0.667,CF,_,150.0,PEDOT:PSS,PDINO,10.23,10.23,0.962,65.03,"[<rdkit.Chem.rdchem.Mol object at 0x7fdd1481b8b0>, <rdkit.Chem.rdchem.Mol object at 0x7fdd1480cf20>, <rdkit.Chem.rdchem.Mol object at 0x7fdd1480d000>, <rdkit.Chem.rdchem.Mol object at 0x7fdd1480d4d0>, <rdkit.Chem.rdchem.Mol object at 0x7fdd1480d540>, <rdkit.Chem.rdchem.Mol object at 0x7fdd1480ceb0>]","[<rdkit.Chem.rdchem.Mol object at 0x7fdd1480cc10>, <rdkit.Chem.rdchem.Mol object at 0x7fdd1480c510>, <rdkit.Chem.rdchem.Mol object at 0x7fdd1480d070>, <rdkit.Chem.rdchem.Mol object at 0x7fdd1480d150>, <rdkit.Chem.rdchem.Mol object at 0x7fdd1480d380>]","[<rdkit.Chem.rdchem.Mol object at 0x7fdd1481b8b0>, <rdkit.Chem.rdchem.Mol object at 0x7fdd1480cf20>, <rdkit.Chem.rdchem.Mol object at 0x7fdd1480d000>, <rdkit.Chem.rdchem.Mol object at 0x7fdd1480d4d0>, <rdkit.Chem.rdchem.Mol object at 0x7fdd1480d540>, <rdkit.Chem.rdchem.Mol object at 0x7fdd1480ceb0>, '.', <rdkit.Chem.rdchem.Mol object at 0x7fdd1480cc10>, <rdkit.Chem.rdchem.Mol object at 0x7fdd1480c510>, <rdkit.Chem.rdchem.Mol object at 0x7fdd1480d070>, <rdkit.Chem.rdchem.Mol object at 0x7fdd1480d150>, <rdkit.Chem.rdchem.Mol object at 0x7fdd1480d380>]","[0, 0, 0, 0, 0, 882, 883, 884, 885, 886, 887, 1, 888, 889, 890, 891, 892]"
J73,m-ITIC,-5.46,-2.92,-5.526666666666667,-3.8515384615384622,0.667,CF,_,150.0,PEDOT:PSS,PDINO,10.71,10.71,0.974,66.87,"[<rdkit.Chem.rdchem.Mol object at 0x7fdd1481adc0>, <rdkit.Chem.rdchem.Mol object at 0x7fdd1480d7e0>, <rdkit.Chem.rdchem.Mol object at 0x7fdd1480c900>, <rdkit.Chem.rdchem.Mol object at 0x7fdd1480d770>, <rdkit.Chem.rdchem.Mol object at 0x7fdd1480d9a0>, <rdkit.Chem.rdchem.Mol object at 0x7fdd1480d690>]","[<rdkit.Chem.rdchem.Mol object at 0x7fdd1480d3f0>, <rdkit.Chem.rdchem.Mol object at 0x7fdd1480d0e0>, <rdkit.Chem.rdchem.Mol object at 0x7fdd1480d310>, <rdkit.Chem.rdchem.Mol object at 0x7fdd1480d700>, <rdkit.Chem.rdchem.Mol object at 0x7fdd1480d620>]","[<rdkit.Chem.rdchem.Mol object at 0x7fdd1481adc0>, <rdkit.Chem.rdchem.Mol object at 0x7fdd1480d7e0>, <rdkit.Chem.rdchem.Mol object at 0x7fdd1480c900>, <rdkit.Chem.rdchem.Mol object at 0x7fdd1480d770>, <rdkit.Chem.rdchem.Mol object at 0x7fdd1480d9a0>, <rdkit.Chem.rdchem.Mol object at 0x7fdd1480d690>, '.', <rdkit.Chem.rdchem.Mol object at 0x7fdd1480d3f0>, <rdkit.Chem.rdchem.Mol object at 0x7fdd1480d0e0>, <rdkit.Chem.rdchem.Mol object at 0x7fdd1480d310>, <rdkit.Chem.rdchem.Mol object at 0x7fdd1480d700>, <rdkit.Chem.rdchem.Mol object at 0x7fdd1480d620>]","[0, 0, 0, 0, 0, 893, 894, 895, 896, 897, 898, 1, 899, 900, 901, 902, 903]"
J74,m-ITIC,-5.56,-3.06,-5.526666666666667,-3.8515384615384622,0.667,CF,_,150.0,PEDOT:PSS,PDINO,9.63,9.62,0.99,61.18,"[<rdkit.Chem.rdchem.Mol object at 0x7fdd148197e0>, <rdkit.Chem.rdchem.Mol object at 0x7fdd1480cf90>, <rdkit.Chem.rdchem.Mol object at 0x7fdd1480d460>, <rdkit.Chem.rdchem.Mol object at 0x7fdd1480dd20>, <rdkit.Chem.rdchem.Mol object at 0x7fdd1480ccf0>, <rdkit.Chem.rdchem.Mol object at 0x7fdd1480e0a0>]","[<rdkit.Chem.rdchem.Mol object at 0x7fdd1480d930>, <rdkit.Chem.rdchem.Mol object at 0x7fdd1480dbd0>, <rdkit.Chem.rdchem.Mol object at 0x7fdd1480c190>, <rdkit.Chem.rdchem.Mol object at 0x7fdd1480c890>, <rdkit.Chem.rdchem.Mol object at 0x7fdd1480db60>]","[<rdkit.Chem.rdchem.Mol object at 0x7fdd148197e0>, <rdkit.Chem.rdchem.Mol object at 0x7fdd1480cf90>, <rdkit.Chem.rdchem.Mol object at 0x7fdd1480d460>, <rdkit.Chem.rdchem.Mol object at 0x7fdd1480dd20>, <rdkit.Chem.rdchem.Mol object at 0x7fdd1480ccf0>, <rdkit.Chem.rdchem.Mol object at 0x7fdd1480e0a0>, '.', <rdkit.Chem.rdchem.Mol object at 0x7fdd1480d930>, <rdkit.Chem.rdchem.Mol object at 0x7fdd1480dbd0>, <rdkit.Chem.rdchem.Mol object at 0x7fdd1480c190>, <rdkit.Chem.rdchem.Mol object at 0x7fdd1480c890>, <rdkit.Chem.rdchem.Mol object at 0x7fdd1480db60>]","[0, 0, 0, 0, 0, 904, 905, 906, 907, 908, 909, 1, 910, 911, 912, 913, 914]"
J91,m-ITIC,-5.5,-3.02,-5.526666666666667,-3.8515384615384622,0.667,CF,_,150.0,PEDOT:PSS,PDINO,11.63,11.63,0.984,65.54,"[<rdkit.Chem.rdchem.Mol object at 0x7fdd1480e260>, <rdkit.Chem.rdchem.Mol object at 0x7fdd1480e340>, <rdkit.Chem.rdchem.Mol object at 0x7fdd1480e030>, <rdkit.Chem.rdchem.Mol object at 0x7fdd1480dc40>, <rdkit.Chem.rdchem.Mol object at 0x7fdd1480c2e0>, <rdkit.Chem.rdchem.Mol object at 0x7fdd1480cba0>, <rdkit.Chem.rdchem.Mol object at 0x7fdd1480e7a0>]","[<rdkit.Chem.rdchem.Mol object at 0x7fdd1480e810>, <rdkit.Chem.rdchem.Mol object at 0x7fdd1480da10>, <rdkit.Chem.rdchem.Mol object at 0x7fdd1480cc80>, <rdkit.Chem.rdchem.Mol object at 0x7fdd1480d8c0>, <rdkit.Chem.rdchem.Mol object at 0x7fdd1480d2a0>]","[<rdkit.Chem.rdchem.Mol object at 0x7fdd1480e260>, <rdkit.Chem.rdchem.Mol object at 0x7fdd1480e340>, <rdkit.Chem.rdchem.Mol object at 0x7fdd1480e030>, <rdkit.Chem.rdchem.Mol object at 0x7fdd1480dc40>, <rdkit.Chem.rdchem.Mol object at 0x7fdd1480c2e0>, <rdkit.Chem.rdchem.Mol object at 0x7fdd1480cba0>, <rdkit.Chem.rdchem.Mol object at 0x7fdd1480e7a0>, '.', <rdkit.Chem.rdchem.Mol object at 0x7fdd1480e810>, <rdkit.Chem.rdchem.Mol object at 0x7fdd1480da10>, <rdkit.Chem.rdchem.Mol object at 0x7fdd1480cc80>, <rdkit.Chem.rdchem.Mol object at 0x7fdd1480d8c0>, <rdkit.Chem.rdchem.Mol object at 0x7fdd1480d2a0>]","[0, 0, 0, 0, 915, 916, 917, 918, 919, 920, 921, 1, 922, 923, 924, 925, 926]"
J52,m-ITIC,-5.218571428571429,-3.341428571428572,-5.526666666666667,-3.8515384615384622,0.667,CF,_,150.0,PEDOT:PSS,PDINO,5.98,5.98,0.701,49.73,"[<rdkit.Chem.rdchem.Mol object at 0x7fdd1480e6c0>, <rdkit.Chem.rdchem.Mol object at 0x7fdd1480e2d0>, <rdkit.Chem.rdchem.Mol object at 0x7fdd1480e960>, <rdkit.Chem.rdchem.Mol object at 0x7fdd1480daf0>, <rdkit.Chem.rdchem.Mol object at 0x7fdd1480e5e0>, <rdkit.Chem.rdchem.Mol object at 0x7fdd1480ee30>]","[<rdkit.Chem.rdchem.Mol object at 0x7fdd1480ec00>, <rdkit.Chem.rdchem.Mol object at 0x7fdd1480e110>, <rdkit.Chem.rdchem.Mol object at 0x7fdd1480e500>, <rdkit.Chem.rdchem.Mol object at 0x7fdd1480e880>, <rdkit.Chem.rdchem.Mol object at 0x7fdd1480c040>]","[<rdkit.Chem.rdchem.Mol object at 0x7fdd1480e6c0>, <rdkit.Chem.rdchem.Mol object at 0x7fdd1480e2d0>, <rdkit.Chem.rdchem.Mol object at 0x7fdd1480e960>, <rdkit.Chem.rdchem.Mol object at 0x7fdd1480daf0>, <rdkit.Chem.rdchem.Mol object at 0x7fdd1480e5e0>, <rdkit.Chem.rdchem.Mol object at 0x7fdd1480ee30>, '.', <rdkit.Chem.rdchem.Mol object at 0x7fdd1480ec00>, <rdkit.Chem.rdchem.Mol object at 0x7fdd1480e110>, <rdkit.Chem.rdchem.Mol object at 0x7fdd1480e500>, <rdkit.Chem.rdchem.Mol object at 0x7fdd1480e880>, <rdkit.Chem.rdchem.Mol object at 0x7fdd1480c040>]","[0, 0, 0, 0, 0, 927, 928, 929, 930, 931, 932, 1, 933, 934, 935, 936, 937]"
J71,m-MeIC,-5.353333333333333,-3.4318181818181825,-5.54,-3.9,1.0,CF,_,150.0,PEDOT:PSS,PDINO,11.73,11.73,0.919,69.2,"[<rdkit.Chem.rdchem.Mol object at 0x7fdd1480d1c0>, <rdkit.Chem.rdchem.Mol object at 0x7fdd1480e9d0>, <rdkit.Chem.rdchem.Mol object at 0x7fdd1480dfc0>, <rdkit.Chem.rdchem.Mol object at 0x7fdd1480e3b0>, <rdkit.Chem.rdchem.Mol object at 0x7fdd1480e730>, <rdkit.Chem.rdchem.Mol object at 0x7fdd1480ef10>]","[<rdkit.Chem.rdchem.Mol object at 0x7fdd1480c200>, <rdkit.Chem.rdchem.Mol object at 0x7fdd1480eb20>, <rdkit.Chem.rdchem.Mol object at 0x7fdd1480eb90>, <rdkit.Chem.rdchem.Mol object at 0x7fdd1480da80>, <rdkit.Chem.rdchem.Mol object at 0x7fdd1480e420>]","[<rdkit.Chem.rdchem.Mol object at 0x7fdd1480d1c0>, <rdkit.Chem.rdchem.Mol object at 0x7fdd1480e9d0>, <rdkit.Chem.rdchem.Mol object at 0x7fdd1480dfc0>, <rdkit.Chem.rdchem.Mol object at 0x7fdd1480e3b0>, <rdkit.Chem.rdchem.Mol object at 0x7fdd1480e730>, <rdkit.Chem.rdchem.Mol object at 0x7fdd1480ef10>, '.', <rdkit.Chem.rdchem.Mol object at 0x7fdd1480c200>, <rdkit.Chem.rdchem.Mol object at 0x7fdd1480eb20>, <rdkit.Chem.rdchem.Mol object at 0x7fdd1480eb90>, <rdkit.Chem.rdchem.Mol object at 0x7fdd1480da80>, <rdkit.Chem.rdchem.Mol object at 0x7fdd1480e420>]","[0, 0, 0, 0, 0, 938, 939, 940, 941, 942, 943, 1, 944, 945, 946, 947, 948]"
PBDB-T,m-MeIC,-5.297714285714285,-3.4170000000000003,-5.54,-3.9,1.0,CF,_,150.0,PEDOT:PSS,PDINO,10.68,10.67,0.843,69.7,"[<rdkit.Chem.rdchem.Mol object at 0x7fdd1480f140>, <rdkit.Chem.rdchem.Mol object at 0x7fdd1480dd90>, <rdkit.Chem.rdchem.Mol object at 0x7fdd1480ed50>, <rdkit.Chem.rdchem.Mol object at 0x7fdd1480f1b0>, <rdkit.Chem.rdchem.Mol object at 0x7fdd1480fc30>]","[<rdkit.Chem.rdchem.Mol object at 0x7fdd1480fe60>, <rdkit.Chem.rdchem.Mol object at 0x7fdd1480f3e0>, <rdkit.Chem.rdchem.Mol object at 0x7fdd1480c270>, <rdkit.Chem.rdchem.Mol object at 0x7fdd1480f370>, <rdkit.Chem.rdchem.Mol object at 0x7fdd1480ea40>]","[<rdkit.Chem.rdchem.Mol object at 0x7fdd1480f140>, <rdkit.Chem.rdchem.Mol object at 0x7fdd1480dd90>, <rdkit.Chem.rdchem.Mol object at 0x7fdd1480ed50>, <rdkit.Chem.rdchem.Mol object at 0x7fdd1480f1b0>, <rdkit.Chem.rdchem.Mol object at 0x7fdd1480fc30>, '.', <rdkit.Chem.rdchem.Mol object at 0x7fdd1480fe60>, <rdkit.Chem.rdchem.Mol object at 0x7fdd1480f3e0>, <rdkit.Chem.rdchem.Mol object at 0x7fdd1480c270>, <rdkit.Chem.rdchem.Mol object at 0x7fdd1480f370>, <rdkit.Chem.rdchem.Mol object at 0x7fdd1480ea40>]","[0, 0, 0, 0, 0, 0, 949, 950, 951, 952, 953, 1, 954, 955, 956, 957, 958]"
PTB7-Th,m-MeIC,-5.204782608695651,-3.5391891891891896,-5.54,-3.9,1.0,CF,CN,25.0,PEDOT:PSS,PDINO,8.12,8.11,0.796,61.7,"[<rdkit.Chem.rdchem.Mol object at 0x7fdd1480e8f0>, <rdkit.Chem.rdchem.Mol object at 0x7fdd1480ece0>, <rdkit.Chem.rdchem.Mol object at 0x7fdd1480df50>, <rdkit.Chem.rdchem.Mol object at 0x7fdd1480e180>, <rdkit.Chem.rdchem.Mol object at 0x7fdd1480f840>, <rdkit.Chem.rdchem.Mol object at 0x7fdd1480f220>, <rdkit.Chem.rdchem.Mol object at 0x7fdd1480f530>]","[<rdkit.Chem.rdchem.Mol object at 0x7fdd1480f760>, <rdkit.Chem.rdchem.Mol object at 0x7fdd1480eff0>, <rdkit.Chem.rdchem.Mol object at 0x7fdd1480ec70>, <rdkit.Chem.rdchem.Mol object at 0x7fdd1480de70>, <rdkit.Chem.rdchem.Mol object at 0x7fdd1480f0d0>]","[<rdkit.Chem.rdchem.Mol object at 0x7fdd1480e8f0>, <rdkit.Chem.rdchem.Mol object at 0x7fdd1480ece0>, <rdkit.Chem.rdchem.Mol object at 0x7fdd1480df50>, <rdkit.Chem.rdchem.Mol object at 0x7fdd1480e180>, <rdkit.Chem.rdchem.Mol object at 0x7fdd1480f840>, <rdkit.Chem.rdchem.Mol object at 0x7fdd1480f220>, <rdkit.Chem.rdchem.Mol object at 0x7fdd1480f530>, '.', <rdkit.Chem.rdchem.Mol object at 0x7fdd1480f760>, <rdkit.Chem.rdchem.Mol object at 0x7fdd1480eff0>, <rdkit.Chem.rdchem.Mol object at 0x7fdd1480ec70>, <rdkit.Chem.rdchem.Mol object at 0x7fdd1480de70>, <rdkit.Chem.rdchem.Mol object at 0x7fdd1480f0d0>]","[0, 0, 0, 0, 959, 960, 961, 962, 963, 964, 965, 1, 966, 967, 968, 969, 970]"
J61,TP21,-5.303333333333334,-3.151666666666667,-5.46,-3.61,1.0,CB,_,140.0,PEDOT:PSS,Ca,5.81,5.85,1.05,51.0,"[<rdkit.Chem.rdchem.Mol object at 0x7fdd1480fbc0>, <rdkit.Chem.rdchem.Mol object at 0x7fdd1480fae0>, <rdkit.Chem.rdchem.Mol object at 0x7fdd1480f4c0>, <rdkit.Chem.rdchem.Mol object at 0x7fdd1480f610>, <rdkit.Chem.rdchem.Mol object at 0x7fdd1480e1f0>, <rdkit.Chem.rdchem.Mol object at 0x7fdd1480eab0>, <rdkit.Chem.rdchem.Mol object at 0x7fdd14840200>]","[<rdkit.Chem.rdchem.Mol object at 0x7fdd1480e570>, <rdkit.Chem.rdchem.Mol object at 0x7fdd1480fa00>, <rdkit.Chem.rdchem.Mol object at 0x7fdd1480fdf0>, <rdkit.Chem.rdchem.Mol object at 0x7fdd1480eea0>, <rdkit.Chem.rdchem.Mol object at 0x7fdd1480fa70>, <rdkit.Chem.rdchem.Mol object at 0x7fdd1480f6f0>]","[<rdkit.Chem.rdchem.Mol object at 0x7fdd1480fbc0>, <rdkit.Chem.rdchem.Mol object at 0x7fdd1480fae0>, <rdkit.Chem.rdchem.Mol object at 0x7fdd1480f4c0>, <rdkit.Chem.rdchem.Mol object at 0x7fdd1480f610>, <rdkit.Chem.rdchem.Mol object at 0x7fdd1480e1f0>, <rdkit.Chem.rdchem.Mol object at 0x7fdd1480eab0>, <rdkit.Chem.rdchem.Mol object at 0x7fdd14840200>, '.', <rdkit.Chem.rdchem.Mol object at 0x7fdd1480e570>, <rdkit.Chem.rdchem.Mol object at 0x7fdd1480fa00>, <rdkit.Chem.rdchem.Mol object at 0x7fdd1480fdf0>, <rdkit.Chem.rdchem.Mol object at 0x7fdd1480eea0>, <rdkit.Chem.rdchem.Mol object at 0x7fdd1480fa70>, <rdkit.Chem.rdchem.Mol object at 0x7fdd1480f6f0>]","[0, 0, 0, 971, 972, 973, 974, 975, 976, 977, 1, 978, 979, 980, 981, 982, 983]"