Donor,Acceptor,HOMO_D_eV,LUMO_D_eV,HOMO_A_eV,LUMO_A_eV,D_A_ratio_m_m,solvent,solvent_additive,annealing_temperature,hole_contact_layer,electron_contact_layer,PCE_percent,calc_PCE_percent,Voc_V,FF_percent,Donor_BRICS,Acceptor_BRICS,DA_pair_BRICS,DA_tokenized_BRICS
PBDTTT-C-T,IDTT-2BM,-5.128,-3.268,-5.5,-3.8,1.5,o-DCB,DIO,25.0,PEDOT:PSS,Ca,4.7,4.64,0.845,56.8,"[<rdkit.Chem.rdchem.Mol object at 0x7fdd1489bb50>, <rdkit.Chem.rdchem.Mol object at 0x7fdd148a9310>, <rdkit.Chem.rdchem.Mol object at 0x7fdd148a86d0>, <rdkit.Chem.rdchem.Mol object at 0x7fdd148a92a0>, <rdkit.Chem.rdchem.Mol object at 0x7fdd148a8900>]","[<rdkit.Chem.rdchem.Mol object at 0x7fdd148a8270>, <rdkit.Chem.rdchem.Mol object at 0x7fdd148a90e0>, <rdkit.Chem.rdchem.Mol object at 0x7fdd148a80b0>, <rdkit.Chem.rdchem.Mol object at 0x7fdd148a9540>, <rdkit.Chem.rdchem.Mol object at 0x7fdd148a8510>]","[<rdkit.Chem.rdchem.Mol object at 0x7fdd1489bb50>, <rdkit.Chem.rdchem.Mol object at 0x7fdd148a9310>, <rdkit.Chem.rdchem.Mol object at 0x7fdd148a86d0>, <rdkit.Chem.rdchem.Mol object at 0x7fdd148a92a0>, <rdkit.Chem.rdchem.Mol object at 0x7fdd148a8900>, '.', <rdkit.Chem.rdchem.Mol object at 0x7fdd148a8270>, <rdkit.Chem.rdchem.Mol object at 0x7fdd148a90e0>, <rdkit.Chem.rdchem.Mol object at 0x7fdd148a80b0>, <rdkit.Chem.rdchem.Mol object at 0x7fdd148a9540>, <rdkit.Chem.rdchem.Mol object at 0x7fdd148a8510>]","[0, 0, 0, 0, 0, 0, 2135, 2136, 2137, 2138, 2139, 1, 2140, 2141, 2142, 2143, 2144]"
PTB7-Th,IDT-T,-5.204782608695651,-3.5391891891891896,-5.49,-3.985,0.769,CB,CN,25.0,MoOx,ZnO,4.08,4.08,0.84,50.9,"[<rdkit.Chem.rdchem.Mol object at 0x7fdd148a8660>, <rdkit.Chem.rdchem.Mol object at 0x7fdd148a94d0>, <rdkit.Chem.rdchem.Mol object at 0x7fdd148a9460>, <rdkit.Chem.rdchem.Mol object at 0x7fdd148a9230>, <rdkit.Chem.rdchem.Mol object at 0x7fdd148a8c80>, <rdkit.Chem.rdchem.Mol object at 0x7fdd148a8970>, <rdkit.Chem.rdchem.Mol object at 0x7fdd148a9690>]","[<rdkit.Chem.rdchem.Mol object at 0x7fdd148a8ba0>, <rdkit.Chem.rdchem.Mol object at 0x7fdd148a87b0>, <rdkit.Chem.rdchem.Mol object at 0x7fdd148a8820>, <rdkit.Chem.rdchem.Mol object at 0x7fdd148a8040>, <rdkit.Chem.rdchem.Mol object at 0x7fdd148a9c40>, <rdkit.Chem.rdchem.Mol object at 0x7fdd148a98c0>]","[<rdkit.Chem.rdchem.Mol object at 0x7fdd148a8660>, <rdkit.Chem.rdchem.Mol object at 0x7fdd148a94d0>, <rdkit.Chem.rdchem.Mol object at 0x7fdd148a9460>, <rdkit.Chem.rdchem.Mol object at 0x7fdd148a9230>, <rdkit.Chem.rdchem.Mol object at 0x7fdd148a8c80>, <rdkit.Chem.rdchem.Mol object at 0x7fdd148a8970>, <rdkit.Chem.rdchem.Mol object at 0x7fdd148a9690>, '.', <rdkit.Chem.rdchem.Mol object at 0x7fdd148a8ba0>, <rdkit.Chem.rdchem.Mol object at 0x7fdd148a87b0>, <rdkit.Chem.rdchem.Mol object at 0x7fdd148a8820>, <rdkit.Chem.rdchem.Mol object at 0x7fdd148a8040>, <rdkit.Chem.rdchem.Mol object at 0x7fdd148a9c40>, <rdkit.Chem.rdchem.Mol object at 0x7fdd148a98c0>]","[0, 0, 0, 2145, 2146, 2147, 2148, 2149, 2150, 2151, 1, 2152, 2153, 2154, 2155, 2156, 2157]"
PBDB-T,IDT-Tz,-5.297714285714285,-3.4170000000000003,-5.62,-4.09,1.0,CB,CN,25.0,MoOx,ZnO,8.52,8.52,0.88,70.8,"[<rdkit.Chem.rdchem.Mol object at 0x7fdd1489b530>, <rdkit.Chem.rdchem.Mol object at 0x7fdd148a8d60>, <rdkit.Chem.rdchem.Mol object at 0x7fdd148a8350>, <rdkit.Chem.rdchem.Mol object at 0x7fdd148a8dd0>, <rdkit.Chem.rdchem.Mol object at 0x7fdd148aa730>]","[<rdkit.Chem.rdchem.Mol object at 0x7fdd148aa960>, <rdkit.Chem.rdchem.Mol object at 0x7fdd148a9bd0>, <rdkit.Chem.rdchem.Mol object at 0x7fdd148a9770>, <rdkit.Chem.rdchem.Mol object at 0x7fdd148a9f50>, <rdkit.Chem.rdchem.Mol object at 0x7fdd148a9ee0>, <rdkit.Chem.rdchem.Mol object at 0x7fdd148a9a10>]","[<rdkit.Chem.rdchem.Mol object at 0x7fdd1489b530>, <rdkit.Chem.rdchem.Mol object at 0x7fdd148a8d60>, <rdkit.Chem.rdchem.Mol object at 0x7fdd148a8350>, <rdkit.Chem.rdchem.Mol object at 0x7fdd148a8dd0>, <rdkit.Chem.rdchem.Mol object at 0x7fdd148aa730>, '.', <rdkit.Chem.rdchem.Mol object at 0x7fdd148aa960>, <rdkit.Chem.rdchem.Mol object at 0x7fdd148a9bd0>, <rdkit.Chem.rdchem.Mol object at 0x7fdd148a9770>, <rdkit.Chem.rdchem.Mol object at 0x7fdd148a9f50>, <rdkit.Chem.rdchem.Mol object at 0x7fdd148a9ee0>, <rdkit.Chem.rdchem.Mol object at 0x7fdd148a9a10>]","[0, 0, 0, 0, 0, 2158, 2159, 2160, 2161, 2162, 1, 2163, 2164, 2165, 2166, 2167, 2168]"
PTB7-Th,IDT-IC,-5.204782608695651,-3.5391891891891896,-5.693333333333334,-3.866666666666666,0.667,o-DCB,_,150.0,PEDOT:PSS,PDINO,3.16,3.16,0.83,40.0,"[<rdkit.Chem.rdchem.Mol object at 0x7fdd148a9700>, <rdkit.Chem.rdchem.Mol object at 0x7fdd148a9850>, <rdkit.Chem.rdchem.Mol object at 0x7fdd148a99a0>, <rdkit.Chem.rdchem.Mol object at 0x7fdd148a93f0>, <rdkit.Chem.rdchem.Mol object at 0x7fdd148a9e70>, <rdkit.Chem.rdchem.Mol object at 0x7fdd148a8580>, <rdkit.Chem.rdchem.Mol object at 0x7fdd148aa570>]","[<rdkit.Chem.rdchem.Mol object at 0x7fdd148aa7a0>, <rdkit.Chem.rdchem.Mol object at 0x7fdd148a9a80>, <rdkit.Chem.rdchem.Mol object at 0x7fdd148aa880>, <rdkit.Chem.rdchem.Mol object at 0x7fdd148aa110>, <rdkit.Chem.rdchem.Mol object at 0x7fdd148a9b60>]","[<rdkit.Chem.rdchem.Mol object at 0x7fdd148a9700>, <rdkit.Chem.rdchem.Mol object at 0x7fdd148a9850>, <rdkit.Chem.rdchem.Mol object at 0x7fdd148a99a0>, <rdkit.Chem.rdchem.Mol object at 0x7fdd148a93f0>, <rdkit.Chem.rdchem.Mol object at 0x7fdd148a9e70>, <rdkit.Chem.rdchem.Mol object at 0x7fdd148a8580>, <rdkit.Chem.rdchem.Mol object at 0x7fdd148aa570>, '.', <rdkit.Chem.rdchem.Mol object at 0x7fdd148aa7a0>, <rdkit.Chem.rdchem.Mol object at 0x7fdd148a9a80>, <rdkit.Chem.rdchem.Mol object at 0x7fdd148aa880>, <rdkit.Chem.rdchem.Mol object at 0x7fdd148aa110>, <rdkit.Chem.rdchem.Mol object at 0x7fdd148a9b60>]","[0, 0, 0, 0, 2169, 2170, 2171, 2172, 2173, 2174, 2175, 1, 2176, 2177, 2178, 2179, 2180]"
PTB7-Th,IEIC,-5.204782608695651,-3.5391891891891896,-5.455,-3.8625,0.667,o-DCB,_,25.0,PEDOT:PSS,PDIN,6.31,6.31,0.97,48.0,"[<rdkit.Chem.rdchem.Mol object at 0x7fdd148aa420>, <rdkit.Chem.rdchem.Mol object at 0x7fdd148a9e00>, <rdkit.Chem.rdchem.Mol object at 0x7fdd148aa500>, <rdkit.Chem.rdchem.Mol object at 0x7fdd148aa5e0>, <rdkit.Chem.rdchem.Mol object at 0x7fdd148a9070>, <rdkit.Chem.rdchem.Mol object at 0x7fdd148a9cb0>, <rdkit.Chem.rdchem.Mol object at 0x7fdd148a9620>]","[<rdkit.Chem.rdchem.Mol object at 0x7fdd148a9d90>, <rdkit.Chem.rdchem.Mol object at 0x7fdd148aaab0>, <rdkit.Chem.rdchem.Mol object at 0x7fdd148a8740>, <rdkit.Chem.rdchem.Mol object at 0x7fdd148a9af0>, <rdkit.Chem.rdchem.Mol object at 0x7fdd148aab20>, <rdkit.Chem.rdchem.Mol object at 0x7fdd148b4740>, <rdkit.Chem.rdchem.Mol object at 0x7fdd148abf40>]","[<rdkit.Chem.rdchem.Mol object at 0x7fdd148aa420>, <rdkit.Chem.rdchem.Mol object at 0x7fdd148a9e00>, <rdkit.Chem.rdchem.Mol object at 0x7fdd148aa500>, <rdkit.Chem.rdchem.Mol object at 0x7fdd148aa5e0>, <rdkit.Chem.rdchem.Mol object at 0x7fdd148a9070>, <rdkit.Chem.rdchem.Mol object at 0x7fdd148a9cb0>, <rdkit.Chem.rdchem.Mol object at 0x7fdd148a9620>, '.', <rdkit.Chem.rdchem.Mol object at 0x7fdd148a9d90>, <rdkit.Chem.rdchem.Mol object at 0x7fdd148aaab0>, <rdkit.Chem.rdchem.Mol object at 0x7fdd148a8740>, <rdkit.Chem.rdchem.Mol object at 0x7fdd148a9af0>, <rdkit.Chem.rdchem.Mol object at 0x7fdd148aab20>, <rdkit.Chem.rdchem.Mol object at 0x7fdd148b4740>, <rdkit.Chem.rdchem.Mol object at 0x7fdd148abf40>]","[0, 0, 2181, 2182, 2183, 2184, 2185, 2186, 2187, 1, 2188, 2189, 2190, 2191, 2192, 2193, 2194]"
PTB7-Th,IDT-N,-5.204782608695651,-3.5391891891891896,-5.73,-4.08,1.0,CF,_,100.0,PEDOT:PSS,PNDIT-F3N-Br,5.5,5.48,0.73,57.7,"[<rdkit.Chem.rdchem.Mol object at 0x7fdd148abd10>, <rdkit.Chem.rdchem.Mol object at 0x7fdd148aba70>, <rdkit.Chem.rdchem.Mol object at 0x7fdd148ab680>, <rdkit.Chem.rdchem.Mol object at 0x7fdd148abed0>, <rdkit.Chem.rdchem.Mol object at 0x7fdd148abb50>, <rdkit.Chem.rdchem.Mol object at 0x7fdd148abae0>, <rdkit.Chem.rdchem.Mol object at 0x7fdd148ab0d0>]","[<rdkit.Chem.rdchem.Mol object at 0x7fdd148ab4c0>, <rdkit.Chem.rdchem.Mol object at 0x7fdd148aae30>, <rdkit.Chem.rdchem.Mol object at 0x7fdd148ab840>, <rdkit.Chem.rdchem.Mol object at 0x7fdd148abbc0>, <rdkit.Chem.rdchem.Mol object at 0x7fdd148a9d20>]","[<rdkit.Chem.rdchem.Mol object at 0x7fdd148abd10>, <rdkit.Chem.rdchem.Mol object at 0x7fdd148aba70>, <rdkit.Chem.rdchem.Mol object at 0x7fdd148ab680>, <rdkit.Chem.rdchem.Mol object at 0x7fdd148abed0>, <rdkit.Chem.rdchem.Mol object at 0x7fdd148abb50>, <rdkit.Chem.rdchem.Mol object at 0x7fdd148abae0>, <rdkit.Chem.rdchem.Mol object at 0x7fdd148ab0d0>, '.', <rdkit.Chem.rdchem.Mol object at 0x7fdd148ab4c0>, <rdkit.Chem.rdchem.Mol object at 0x7fdd148aae30>, <rdkit.Chem.rdchem.Mol object at 0x7fdd148ab840>, <rdkit.Chem.rdchem.Mol object at 0x7fdd148abbc0>, <rdkit.Chem.rdchem.Mol object at 0x7fdd148a9d20>]","[0, 0, 0, 0, 2195, 2196, 2197, 2198, 2199, 2200, 2201, 1, 2202, 2203, 2204, 2205, 2206]"
PTB7-Th,IDT-T-N,-5.204782608695651,-3.5391891891891896,-5.58,-4.06,1.0,CF,CN,100.0,PEDOT:PSS,PNDIT-F3N-Br,6.6,6.56,0.87,51.38,"[<rdkit.Chem.rdchem.Mol object at 0x7fdd148ab140>, <rdkit.Chem.rdchem.Mol object at 0x7fdd148aac70>, <rdkit.Chem.rdchem.Mol object at 0x7fdd148ab1b0>, <rdkit.Chem.rdchem.Mol object at 0x7fdd148aaa40>, <rdkit.Chem.rdchem.Mol object at 0x7fdd148ab3e0>, <rdkit.Chem.rdchem.Mol object at 0x7fdd148ab450>, <rdkit.Chem.rdchem.Mol object at 0x7fdd148ab290>]","[<rdkit.Chem.rdchem.Mol object at 0x7fdd148abe60>, <rdkit.Chem.rdchem.Mol object at 0x7fdd148ab060>, <rdkit.Chem.rdchem.Mol object at 0x7fdd148abca0>, <rdkit.Chem.rdchem.Mol object at 0x7fdd148ab530>, <rdkit.Chem.rdchem.Mol object at 0x7fdd148aadc0>, <rdkit.Chem.rdchem.Mol object at 0x7fdd148b52a0>, <rdkit.Chem.rdchem.Mol object at 0x7fdd148aa340>]","[<rdkit.Chem.rdchem.Mol object at 0x7fdd148ab140>, <rdkit.Chem.rdchem.Mol object at 0x7fdd148aac70>, <rdkit.Chem.rdchem.Mol object at 0x7fdd148ab1b0>, <rdkit.Chem.rdchem.Mol object at 0x7fdd148aaa40>, <rdkit.Chem.rdchem.Mol object at 0x7fdd148ab3e0>, <rdkit.Chem.rdchem.Mol object at 0x7fdd148ab450>, <rdkit.Chem.rdchem.Mol object at 0x7fdd148ab290>, '.', <rdkit.Chem.rdchem.Mol object at 0x7fdd148abe60>, <rdkit.Chem.rdchem.Mol object at 0x7fdd148ab060>, <rdkit.Chem.rdchem.Mol object at 0x7fdd148abca0>, <rdkit.Chem.rdchem.Mol object at 0x7fdd148ab530>, <rdkit.Chem.rdchem.Mol object at 0x7fdd148aadc0>, <rdkit.Chem.rdchem.Mol object at 0x7fdd148b52a0>, <rdkit.Chem.rdchem.Mol object at 0x7fdd148aa340>]","[0, 0, 2207, 2208, 2209, 2210, 2211, 2212, 2213, 1, 2214, 2215, 2216, 2217, 2218, 2219, 2220]"
PBDB-T,IDT-N,-5.297714285714285,-3.4170000000000003,-5.73,-4.08,1.0,CF,CN,100.0,PEDOT:PSS,PNDIT-F3N-Br,8.99,9.02,0.79,71.91,"[<rdkit.Chem.rdchem.Mol object at 0x7fdd148a97e0>, <rdkit.Chem.rdchem.Mol object at 0x7fdd148aa1f0>, <rdkit.Chem.rdchem.Mol object at 0x7fdd148aaf10>, <rdkit.Chem.rdchem.Mol object at 0x7fdd148aa6c0>, <rdkit.Chem.rdchem.Mol object at 0x7fdd148b5380>]","[<rdkit.Chem.rdchem.Mol object at 0x7fdd148ab300>, <rdkit.Chem.rdchem.Mol object at 0x7fdd148aa490>, <rdkit.Chem.rdchem.Mol object at 0x7fdd148aba00>, <rdkit.Chem.rdchem.Mol object at 0x7fdd148ab990>, <rdkit.Chem.rdchem.Mol object at 0x7fdd148a8e40>]","[<rdkit.Chem.rdchem.Mol object at 0x7fdd148a97e0>, <rdkit.Chem.rdchem.Mol object at 0x7fdd148aa1f0>, <rdkit.Chem.rdchem.Mol object at 0x7fdd148aaf10>, <rdkit.Chem.rdchem.Mol object at 0x7fdd148aa6c0>, <rdkit.Chem.rdchem.Mol object at 0x7fdd148b5380>, '.', <rdkit.Chem.rdchem.Mol object at 0x7fdd148ab300>, <rdkit.Chem.rdchem.Mol object at 0x7fdd148aa490>, <rdkit.Chem.rdchem.Mol object at 0x7fdd148aba00>, <rdkit.Chem.rdchem.Mol object at 0x7fdd148ab990>, <rdkit.Chem.rdchem.Mol object at 0x7fdd148a8e40>]","[0, 0, 0, 0, 0, 0, 2221, 2222, 2223, 2224, 2225, 1, 2226, 2227, 2228, 2229, 2230]"
PBDB-T,IDT-T-N,-5.297714285714285,-3.4170000000000003,-5.58,-4.06,1.0,CF,CN,100.0,PEDOT:PSS,PNDIT-F3N-Br,7.4,7.4,0.94,56.11,"[<rdkit.Chem.rdchem.Mol object at 0x7fdd148ab610>, <rdkit.Chem.rdchem.Mol object at 0x7fdd148aa650>, <rdkit.Chem.rdchem.Mol object at 0x7fdd148ab920>, <rdkit.Chem.rdchem.Mol object at 0x7fdd148a9fc0>, <rdkit.Chem.rdchem.Mol object at 0x7fdd148b4dd0>]","[<rdkit.Chem.rdchem.Mol object at 0x7fdd148aa030>, <rdkit.Chem.rdchem.Mol object at 0x7fdd148ab760>, <rdkit.Chem.rdchem.Mol object at 0x7fdd148abc30>, <rdkit.Chem.rdchem.Mol object at 0x7fdd148aace0>, <rdkit.Chem.rdchem.Mol object at 0x7fdd148aa180>, <rdkit.Chem.rdchem.Mol object at 0x7fdd148b5d20>, <rdkit.Chem.rdchem.Mol object at 0x7fdd148aaea0>]","[<rdkit.Chem.rdchem.Mol object at 0x7fdd148ab610>, <rdkit.Chem.rdchem.Mol object at 0x7fdd148aa650>, <rdkit.Chem.rdchem.Mol object at 0x7fdd148ab920>, <rdkit.Chem.rdchem.Mol object at 0x7fdd148a9fc0>, <rdkit.Chem.rdchem.Mol object at 0x7fdd148b4dd0>, '.', <rdkit.Chem.rdchem.Mol object at 0x7fdd148aa030>, <rdkit.Chem.rdchem.Mol object at 0x7fdd148ab760>, <rdkit.Chem.rdchem.Mol object at 0x7fdd148abc30>, <rdkit.Chem.rdchem.Mol object at 0x7fdd148aace0>, <rdkit.Chem.rdchem.Mol object at 0x7fdd148aa180>, <rdkit.Chem.rdchem.Mol object at 0x7fdd148b5d20>, <rdkit.Chem.rdchem.Mol object at 0x7fdd148aaea0>]","[0, 0, 0, 0, 2231, 2232, 2233, 2234, 2235, 1, 2236, 2237, 2238, 2239, 2240, 2241, 2242]"
PBDB-T,IDT-EDOT,-5.297714285714285,-3.4170000000000003,-5.43,-3.8,0.833,o-DCB,DIO,25.0,MoOx,ZnO,11.32,11.38,0.86,62.0,"[<rdkit.Chem.rdchem.Mol object at 0x7fdd148aa8f0>, <rdkit.Chem.rdchem.Mol object at 0x7fdd148aab90>, <rdkit.Chem.rdchem.Mol object at 0x7fdd148aa260>, <rdkit.Chem.rdchem.Mol object at 0x7fdd148b5af0>, <rdkit.Chem.rdchem.Mol object at 0x7fdd148b54d0>]","[<rdkit.Chem.rdchem.Mol object at 0x7fdd148a8b30>, <rdkit.Chem.rdchem.Mol object at 0x7fdd148aa810>, <rdkit.Chem.rdchem.Mol object at 0x7fdd148ab6f0>, <rdkit.Chem.rdchem.Mol object at 0x7fdd148a95b0>, <rdkit.Chem.rdchem.Mol object at 0x7fdd148b5460>, <rdkit.Chem.rdchem.Mol object at 0x7fdd148b5700>]","[<rdkit.Chem.rdchem.Mol object at 0x7fdd148aa8f0>, <rdkit.Chem.rdchem.Mol object at 0x7fdd148aab90>, <rdkit.Chem.rdchem.Mol object at 0x7fdd148aa260>, <rdkit.Chem.rdchem.Mol object at 0x7fdd148b5af0>, <rdkit.Chem.rdchem.Mol object at 0x7fdd148b54d0>, '.', <rdkit.Chem.rdchem.Mol object at 0x7fdd148a8b30>, <rdkit.Chem.rdchem.Mol object at 0x7fdd148aa810>, <rdkit.Chem.rdchem.Mol object at 0x7fdd148ab6f0>, <rdkit.Chem.rdchem.Mol object at 0x7fdd148a95b0>, <rdkit.Chem.rdchem.Mol object at 0x7fdd148b5460>, <rdkit.Chem.rdchem.Mol object at 0x7fdd148b5700>]","[0, 0, 0, 0, 0, 2243, 2244, 2245, 2246, 2247, 1, 2248, 2249, 2250, 2251, 2252, 2253]"
PBDB-T,IDT-PDOT,-5.297714285714285,-3.4170000000000003,-5.39,-3.77,2.0,o-DCB,_,25.0,MoOx,ZnO,2.18,2.19,0.85,48.9,"[<rdkit.Chem.rdchem.Mol object at 0x7fdd148a9930>, <rdkit.Chem.rdchem.Mol object at 0x7fdd148b5d90>, <rdkit.Chem.rdchem.Mol object at 0x7fdd148b4510>, <rdkit.Chem.rdchem.Mol object at 0x7fdd148b5540>, <rdkit.Chem.rdchem.Mol object at 0x7fdd148b4430>]","[<rdkit.Chem.rdchem.Mol object at 0x7fdd148a8f90>, <rdkit.Chem.rdchem.Mol object at 0x7fdd148aa9d0>, <rdkit.Chem.rdchem.Mol object at 0x7fdd148a84a0>, <rdkit.Chem.rdchem.Mol object at 0x7fdd148aa2d0>, <rdkit.Chem.rdchem.Mol object at 0x7fdd148b5cb0>, <rdkit.Chem.rdchem.Mol object at 0x7fdd148b5930>]","[<rdkit.Chem.rdchem.Mol object at 0x7fdd148a9930>, <rdkit.Chem.rdchem.Mol object at 0x7fdd148b5d90>, <rdkit.Chem.rdchem.Mol object at 0x7fdd148b4510>, <rdkit.Chem.rdchem.Mol object at 0x7fdd148b5540>, <rdkit.Chem.rdchem.Mol object at 0x7fdd148b4430>, '.', <rdkit.Chem.rdchem.Mol object at 0x7fdd148a8f90>, <rdkit.Chem.rdchem.Mol object at 0x7fdd148aa9d0>, <rdkit.Chem.rdchem.Mol object at 0x7fdd148a84a0>, <rdkit.Chem.rdchem.Mol object at 0x7fdd148aa2d0>, <rdkit.Chem.rdchem.Mol object at 0x7fdd148b5cb0>, <rdkit.Chem.rdchem.Mol object at 0x7fdd148b5930>]","[0, 0, 0, 0, 0, 2254, 2255, 2256, 2257, 2258, 1, 2259, 2260, 2261, 2262, 2263, 2264]"
PTB7-Th,p-IDTIDT-IC,-5.204782608695651,-3.5391891891891896,-5.42,-3.82,0.667,o-DCB,_,150.0,PEDOT:PSS,PDINO,6.48,6.47,0.94,47.5,"[<rdkit.Chem.rdchem.Mol object at 0x7fdd148abd80>, <rdkit.Chem.rdchem.Mol object at 0x7fdd148aac00>, <rdkit.Chem.rdchem.Mol object at 0x7fdd148ab7d0>, <rdkit.Chem.rdchem.Mol object at 0x7fdd148a9380>, <rdkit.Chem.rdchem.Mol object at 0x7fdd148b44a0>, <rdkit.Chem.rdchem.Mol object at 0x7fdd148aa3b0>, <rdkit.Chem.rdchem.Mol object at 0x7fdd148b55b0>]","[<rdkit.Chem.rdchem.Mol object at 0x7fdd148aad50>, <rdkit.Chem.rdchem.Mol object at 0x7fdd148b4820>, <rdkit.Chem.rdchem.Mol object at 0x7fdd148aaf80>, <rdkit.Chem.rdchem.Mol object at 0x7fdd148b50e0>, <rdkit.Chem.rdchem.Mol object at 0x7fdd148c51c0>]","[<rdkit.Chem.rdchem.Mol object at 0x7fdd148abd80>, <rdkit.Chem.rdchem.Mol object at 0x7fdd148aac00>, <rdkit.Chem.rdchem.Mol object at 0x7fdd148ab7d0>, <rdkit.Chem.rdchem.Mol object at 0x7fdd148a9380>, <rdkit.Chem.rdchem.Mol object at 0x7fdd148b44a0>, <rdkit.Chem.rdchem.Mol object at 0x7fdd148aa3b0>, <rdkit.Chem.rdchem.Mol object at 0x7fdd148b55b0>, '.', <rdkit.Chem.rdchem.Mol object at 0x7fdd148aad50>, <rdkit.Chem.rdchem.Mol object at 0x7fdd148b4820>, <rdkit.Chem.rdchem.Mol object at 0x7fdd148aaf80>, <rdkit.Chem.rdchem.Mol object at 0x7fdd148b50e0>, <rdkit.Chem.rdchem.Mol object at 0x7fdd148c51c0>]","[0, 0, 0, 0, 2265, 2266, 2267, 2268, 2269, 2270, 2271, 1, 2272, 2273, 2274, 2275, 2276]"
PBDB-TF,IDT-C6,-5.497142857142857,-3.6428571428571423,-5.59,-3.35,1.0,CF,DIO,100.0,PEDOT:PSS,PFN-Br,12.5,12.43,0.96,74.0,"[<rdkit.Chem.rdchem.Mol object at 0x7fdd148b7d10>, <rdkit.Chem.rdchem.Mol object at 0x7fdd148b7920>, <rdkit.Chem.rdchem.Mol object at 0x7fdd148b6c70>, <rdkit.Chem.rdchem.Mol object at 0x7fdd148b7760>, <rdkit.Chem.rdchem.Mol object at 0x7fdd148b7450>, <rdkit.Chem.rdchem.Mol object at 0x7fdd148b6d50>]","[<rdkit.Chem.rdchem.Mol object at 0x7fdd148b69d0>, <rdkit.Chem.rdchem.Mol object at 0x7fdd148b6dc0>, <rdkit.Chem.rdchem.Mol object at 0x7fdd148b6ff0>, <rdkit.Chem.rdchem.Mol object at 0x7fdd148b6a40>]","[<rdkit.Chem.rdchem.Mol object at 0x7fdd148b7d10>, <rdkit.Chem.rdchem.Mol object at 0x7fdd148b7920>, <rdkit.Chem.rdchem.Mol object at 0x7fdd148b6c70>, <rdkit.Chem.rdchem.Mol object at 0x7fdd148b7760>, <rdkit.Chem.rdchem.Mol object at 0x7fdd148b7450>, <rdkit.Chem.rdchem.Mol object at 0x7fdd148b6d50>, '.', <rdkit.Chem.rdchem.Mol object at 0x7fdd148b69d0>, <rdkit.Chem.rdchem.Mol object at 0x7fdd148b6dc0>, <rdkit.Chem.rdchem.Mol object at 0x7fdd148b6ff0>, <rdkit.Chem.rdchem.Mol object at 0x7fdd148b6a40>]","[0, 0, 0, 0, 0, 0, 2277, 2278, 2279, 2280, 2281, 2282, 1, 2283, 2284, 2285, 2286]"
PBDB-TF,IDT-PhC6,-5.497142857142857,-3.6428571428571423,-5.56,-3.32,1.0,CF,DIO,100.0,PEDOT:PSS,PFN-Br,5.6,5.59,1.0,43.0,"[<rdkit.Chem.rdchem.Mol object at 0x7fdd148b7530>, <rdkit.Chem.rdchem.Mol object at 0x7fdd148b6f80>, <rdkit.Chem.rdchem.Mol object at 0x7fdd148b7c30>, <rdkit.Chem.rdchem.Mol object at 0x7fdd148b77d0>, <rdkit.Chem.rdchem.Mol object at 0x7fdd148b7a70>, <rdkit.Chem.rdchem.Mol object at 0x7fdd148b6f10>]","[<rdkit.Chem.rdchem.Mol object at 0x7fdd148b6570>, <rdkit.Chem.rdchem.Mol object at 0x7fdd148b7610>, <rdkit.Chem.rdchem.Mol object at 0x7fdd148b6960>, <rdkit.Chem.rdchem.Mol object at 0x7fdd148b7df0>, <rdkit.Chem.rdchem.Mol object at 0x7fdd148b7220>]","[<rdkit.Chem.rdchem.Mol object at 0x7fdd148b7530>, <rdkit.Chem.rdchem.Mol object at 0x7fdd148b6f80>, <rdkit.Chem.rdchem.Mol object at 0x7fdd148b7c30>, <rdkit.Chem.rdchem.Mol object at 0x7fdd148b77d0>, <rdkit.Chem.rdchem.Mol object at 0x7fdd148b7a70>, <rdkit.Chem.rdchem.Mol object at 0x7fdd148b6f10>, '.', <rdkit.Chem.rdchem.Mol object at 0x7fdd148b6570>, <rdkit.Chem.rdchem.Mol object at 0x7fdd148b7610>, <rdkit.Chem.rdchem.Mol object at 0x7fdd148b6960>, <rdkit.Chem.rdchem.Mol object at 0x7fdd148b7df0>, <rdkit.Chem.rdchem.Mol object at 0x7fdd148b7220>]","[0, 0, 0, 0, 0, 2287, 2288, 2289, 2290, 2291, 2292, 1, 2293, 2294, 2295, 2296, 2297]"