Donor,Acceptor,HOMO_D_eV,LUMO_D_eV,HOMO_A_eV,LUMO_A_eV,D_A_ratio_m_m,solvent,solvent_additive,annealing_temperature,hole_contact_layer,electron_contact_layer,PCE_percent,calc_PCE_percent,Voc_V,FF_percent,Donor_BRICS,Acceptor_BRICS,DA_pair_BRICS,DA_tokenized_BRICS
PBDTS-TDZ,ITIC,-5.39,-2.8,-5.574146341463415,-3.915,1.0,o-xylene,_,25.0,PEDOT:PSS,MoOx,12.8,12.79,1.1,65.4,"[<rdkit.Chem.rdchem.Mol object at 0x7fdd148269d0>, <rdkit.Chem.rdchem.Mol object at 0x7fdd14826500>, <rdkit.Chem.rdchem.Mol object at 0x7fdd14826730>, <rdkit.Chem.rdchem.Mol object at 0x7fdd14825ee0>, <rdkit.Chem.rdchem.Mol object at 0x7fdd14826960>, <rdkit.Chem.rdchem.Mol object at 0x7fdd148266c0>, <rdkit.Chem.rdchem.Mol object at 0x7fdd14826880>, <rdkit.Chem.rdchem.Mol object at 0x7fdd148270d0>]","[<rdkit.Chem.rdchem.Mol object at 0x7fdd14827d10>, <rdkit.Chem.rdchem.Mol object at 0x7fdd14826d50>, <rdkit.Chem.rdchem.Mol object at 0x7fdd14827920>, <rdkit.Chem.rdchem.Mol object at 0x7fdd14826c00>, <rdkit.Chem.rdchem.Mol object at 0x7fdd14826ab0>]","[<rdkit.Chem.rdchem.Mol object at 0x7fdd148269d0>, <rdkit.Chem.rdchem.Mol object at 0x7fdd14826500>, <rdkit.Chem.rdchem.Mol object at 0x7fdd14826730>, <rdkit.Chem.rdchem.Mol object at 0x7fdd14825ee0>, <rdkit.Chem.rdchem.Mol object at 0x7fdd14826960>, <rdkit.Chem.rdchem.Mol object at 0x7fdd148266c0>, <rdkit.Chem.rdchem.Mol object at 0x7fdd14826880>, <rdkit.Chem.rdchem.Mol object at 0x7fdd148270d0>, '.', <rdkit.Chem.rdchem.Mol object at 0x7fdd14827d10>, <rdkit.Chem.rdchem.Mol object at 0x7fdd14826d50>, <rdkit.Chem.rdchem.Mol object at 0x7fdd14827920>, <rdkit.Chem.rdchem.Mol object at 0x7fdd14826c00>, <rdkit.Chem.rdchem.Mol object at 0x7fdd14826ab0>]","[0, 0, 0, 659, 660, 661, 662, 663, 664, 665, 666, 1, 667, 668, 669, 670, 671]"
PBDT-TDZ,ITIC,-5.35,-2.78,-5.574146341463415,-3.915,1.0,o-xylene,_,25.0,PEDOT:PSS,MoOx,9.43,9.43,1.02,58.1,"[<rdkit.Chem.rdchem.Mol object at 0x7fdd14824510>, <rdkit.Chem.rdchem.Mol object at 0x7fdd148253f0>, <rdkit.Chem.rdchem.Mol object at 0x7fdd14827140>, <rdkit.Chem.rdchem.Mol object at 0x7fdd14825c40>, <rdkit.Chem.rdchem.Mol object at 0x7fdd14824270>, <rdkit.Chem.rdchem.Mol object at 0x7fdd14825540>, <rdkit.Chem.rdchem.Mol object at 0x7fdd14827ae0>, <rdkit.Chem.rdchem.Mol object at 0x7fdd14827680>]","[<rdkit.Chem.rdchem.Mol object at 0x7fdd148278b0>, <rdkit.Chem.rdchem.Mol object at 0x7fdd14826420>, <rdkit.Chem.rdchem.Mol object at 0x7fdd148265e0>, <rdkit.Chem.rdchem.Mol object at 0x7fdd14826f80>, <rdkit.Chem.rdchem.Mol object at 0x7fdd14827450>]","[<rdkit.Chem.rdchem.Mol object at 0x7fdd14824510>, <rdkit.Chem.rdchem.Mol object at 0x7fdd148253f0>, <rdkit.Chem.rdchem.Mol object at 0x7fdd14827140>, <rdkit.Chem.rdchem.Mol object at 0x7fdd14825c40>, <rdkit.Chem.rdchem.Mol object at 0x7fdd14824270>, <rdkit.Chem.rdchem.Mol object at 0x7fdd14825540>, <rdkit.Chem.rdchem.Mol object at 0x7fdd14827ae0>, <rdkit.Chem.rdchem.Mol object at 0x7fdd14827680>, '.', <rdkit.Chem.rdchem.Mol object at 0x7fdd148278b0>, <rdkit.Chem.rdchem.Mol object at 0x7fdd14826420>, <rdkit.Chem.rdchem.Mol object at 0x7fdd148265e0>, <rdkit.Chem.rdchem.Mol object at 0x7fdd14826f80>, <rdkit.Chem.rdchem.Mol object at 0x7fdd14827450>]","[0, 0, 0, 672, 673, 674, 675, 676, 677, 678, 679, 1, 680, 681, 682, 683, 684]"
PBFZ-OP,ITIC,-5.33,-3.01,-5.574146341463415,-3.915,1.0,CF,_,160.0,ZnO,MoOx,10.5,10.52,0.91,61.8,"[<rdkit.Chem.rdchem.Mol object at 0x7fdd14826c70>, <rdkit.Chem.rdchem.Mol object at 0x7fdd14826570>, <rdkit.Chem.rdchem.Mol object at 0x7fdd148263b0>, <rdkit.Chem.rdchem.Mol object at 0x7fdd148274c0>, <rdkit.Chem.rdchem.Mol object at 0x7fdd14825f50>, <rdkit.Chem.rdchem.Mol object at 0x7fdd14827760>, <rdkit.Chem.rdchem.Mol object at 0x7fdd148260a0>, <rdkit.Chem.rdchem.Mol object at 0x7fdd14827b50>]","[<rdkit.Chem.rdchem.Mol object at 0x7fdd148277d0>, <rdkit.Chem.rdchem.Mol object at 0x7fdd14827840>, <rdkit.Chem.rdchem.Mol object at 0x7fdd14827a00>, <rdkit.Chem.rdchem.Mol object at 0x7fdd14826f10>, <rdkit.Chem.rdchem.Mol object at 0x7fdd148276f0>]","[<rdkit.Chem.rdchem.Mol object at 0x7fdd14826c70>, <rdkit.Chem.rdchem.Mol object at 0x7fdd14826570>, <rdkit.Chem.rdchem.Mol object at 0x7fdd148263b0>, <rdkit.Chem.rdchem.Mol object at 0x7fdd148274c0>, <rdkit.Chem.rdchem.Mol object at 0x7fdd14825f50>, <rdkit.Chem.rdchem.Mol object at 0x7fdd14827760>, <rdkit.Chem.rdchem.Mol object at 0x7fdd148260a0>, <rdkit.Chem.rdchem.Mol object at 0x7fdd14827b50>, '.', <rdkit.Chem.rdchem.Mol object at 0x7fdd148277d0>, <rdkit.Chem.rdchem.Mol object at 0x7fdd14827840>, <rdkit.Chem.rdchem.Mol object at 0x7fdd14827a00>, <rdkit.Chem.rdchem.Mol object at 0x7fdd14826f10>, <rdkit.Chem.rdchem.Mol object at 0x7fdd148276f0>]","[0, 0, 0, 685, 686, 687, 688, 689, 690, 691, 692, 1, 693, 694, 695, 696, 697]"
PSBZ,ITIC,-5.37,-3.47,-5.574146341463415,-3.915,1.0,CB,_,140.0,ZnO,MoOx,10.5,10.48,0.89,62.0,"[<rdkit.Chem.rdchem.Mol object at 0x7fdd14827220>, <rdkit.Chem.rdchem.Mol object at 0x7fdd14827290>, <rdkit.Chem.rdchem.Mol object at 0x7fdd14827ca0>, <rdkit.Chem.rdchem.Mol object at 0x7fdd148271b0>, <rdkit.Chem.rdchem.Mol object at 0x7fdd14826ce0>, <rdkit.Chem.rdchem.Mol object at 0x7fdd14826340>, <rdkit.Chem.rdchem.Mol object at 0x7fdd148191c0>]","[<rdkit.Chem.rdchem.Mol object at 0x7fdd14827df0>, <rdkit.Chem.rdchem.Mol object at 0x7fdd148259a0>, <rdkit.Chem.rdchem.Mol object at 0x7fdd14826650>, <rdkit.Chem.rdchem.Mol object at 0x7fdd148275a0>, <rdkit.Chem.rdchem.Mol object at 0x7fdd14826110>]","[<rdkit.Chem.rdchem.Mol object at 0x7fdd14827220>, <rdkit.Chem.rdchem.Mol object at 0x7fdd14827290>, <rdkit.Chem.rdchem.Mol object at 0x7fdd14827ca0>, <rdkit.Chem.rdchem.Mol object at 0x7fdd148271b0>, <rdkit.Chem.rdchem.Mol object at 0x7fdd14826ce0>, <rdkit.Chem.rdchem.Mol object at 0x7fdd14826340>, <rdkit.Chem.rdchem.Mol object at 0x7fdd148191c0>, '.', <rdkit.Chem.rdchem.Mol object at 0x7fdd14827df0>, <rdkit.Chem.rdchem.Mol object at 0x7fdd148259a0>, <rdkit.Chem.rdchem.Mol object at 0x7fdd14826650>, <rdkit.Chem.rdchem.Mol object at 0x7fdd148275a0>, <rdkit.Chem.rdchem.Mol object at 0x7fdd14826110>]","[0, 0, 0, 0, 698, 699, 700, 701, 702, 703, 704, 1, 705, 706, 707, 708, 709]"
J71,ITIC1,-5.353333333333333,-3.4318181818181825,-5.48,-3.85,1.0,CF,_,100.0,PEDOT:PSS,ZrAcAc,8.47,8.41,0.92,61.2,"[<rdkit.Chem.rdchem.Mol object at 0x7fdd14826030>, <rdkit.Chem.rdchem.Mol object at 0x7fdd14827300>, <rdkit.Chem.rdchem.Mol object at 0x7fdd14826e30>, <rdkit.Chem.rdchem.Mol object at 0x7fdd14827610>, <rdkit.Chem.rdchem.Mol object at 0x7fdd14827bc0>, <rdkit.Chem.rdchem.Mol object at 0x7fdd14818190>]","[<rdkit.Chem.rdchem.Mol object at 0x7fdd14827530>, <rdkit.Chem.rdchem.Mol object at 0x7fdd14827060>, <rdkit.Chem.rdchem.Mol object at 0x7fdd14827a70>, <rdkit.Chem.rdchem.Mol object at 0x7fdd14827d80>, <rdkit.Chem.rdchem.Mol object at 0x7fdd14818510>]","[<rdkit.Chem.rdchem.Mol object at 0x7fdd14826030>, <rdkit.Chem.rdchem.Mol object at 0x7fdd14827300>, <rdkit.Chem.rdchem.Mol object at 0x7fdd14826e30>, <rdkit.Chem.rdchem.Mol object at 0x7fdd14827610>, <rdkit.Chem.rdchem.Mol object at 0x7fdd14827bc0>, <rdkit.Chem.rdchem.Mol object at 0x7fdd14818190>, '.', <rdkit.Chem.rdchem.Mol object at 0x7fdd14827530>, <rdkit.Chem.rdchem.Mol object at 0x7fdd14827060>, <rdkit.Chem.rdchem.Mol object at 0x7fdd14827a70>, <rdkit.Chem.rdchem.Mol object at 0x7fdd14827d80>, <rdkit.Chem.rdchem.Mol object at 0x7fdd14818510>]","[0, 0, 0, 0, 0, 710, 711, 712, 713, 714, 715, 1, 716, 717, 718, 719, 720]"
J71,ITIC5,-5.353333333333333,-3.4318181818181825,-5.48,-3.95,1.0,CF,_,100.0,PEDOT:PSS,ZrAcAc,12.2,12.23,0.892,74.7,"[<rdkit.Chem.rdchem.Mol object at 0x7fdd14826b20>, <rdkit.Chem.rdchem.Mol object at 0x7fdd14827e60>, <rdkit.Chem.rdchem.Mol object at 0x7fdd14826ea0>, <rdkit.Chem.rdchem.Mol object at 0x7fdd14826180>, <rdkit.Chem.rdchem.Mol object at 0x7fdd148193f0>, <rdkit.Chem.rdchem.Mol object at 0x7fdd148190e0>]","[<rdkit.Chem.rdchem.Mol object at 0x7fdd14826ff0>, <rdkit.Chem.rdchem.Mol object at 0x7fdd14818ac0>, <rdkit.Chem.rdchem.Mol object at 0x7fdd14827c30>, <rdkit.Chem.rdchem.Mol object at 0x7fdd14818c10>, <rdkit.Chem.rdchem.Mol object at 0x7fdd14818eb0>]","[<rdkit.Chem.rdchem.Mol object at 0x7fdd14826b20>, <rdkit.Chem.rdchem.Mol object at 0x7fdd14827e60>, <rdkit.Chem.rdchem.Mol object at 0x7fdd14826ea0>, <rdkit.Chem.rdchem.Mol object at 0x7fdd14826180>, <rdkit.Chem.rdchem.Mol object at 0x7fdd148193f0>, <rdkit.Chem.rdchem.Mol object at 0x7fdd148190e0>, '.', <rdkit.Chem.rdchem.Mol object at 0x7fdd14826ff0>, <rdkit.Chem.rdchem.Mol object at 0x7fdd14818ac0>, <rdkit.Chem.rdchem.Mol object at 0x7fdd14827c30>, <rdkit.Chem.rdchem.Mol object at 0x7fdd14818c10>, <rdkit.Chem.rdchem.Mol object at 0x7fdd14818eb0>]","[0, 0, 0, 0, 0, 721, 722, 723, 724, 725, 726, 1, 727, 728, 729, 730, 731]"
PBDT-ODZ,ITIC-Th,-5.68,-2.89,-5.673333333333334,-3.908888888888889,1.0,CB,_,25.0,CuSCN,PFN-Br,10.12,10.12,1.08,60.4,"[<rdkit.Chem.rdchem.Mol object at 0x7fdd14827f40>, <rdkit.Chem.rdchem.Mol object at 0x7fdd14827ed0>, <rdkit.Chem.rdchem.Mol object at 0x7fdd148273e0>, <rdkit.Chem.rdchem.Mol object at 0x7fdd14818ba0>, <rdkit.Chem.rdchem.Mol object at 0x7fdd14818350>, <rdkit.Chem.rdchem.Mol object at 0x7fdd14818740>, <rdkit.Chem.rdchem.Mol object at 0x7fdd148180b0>]","[<rdkit.Chem.rdchem.Mol object at 0x7fdd14819ee0>, <rdkit.Chem.rdchem.Mol object at 0x7fdd1481a030>, <rdkit.Chem.rdchem.Mol object at 0x7fdd14825d20>, <rdkit.Chem.rdchem.Mol object at 0x7fdd14818890>, <rdkit.Chem.rdchem.Mol object at 0x7fdd14818a50>]","[<rdkit.Chem.rdchem.Mol object at 0x7fdd14827f40>, <rdkit.Chem.rdchem.Mol object at 0x7fdd14827ed0>, <rdkit.Chem.rdchem.Mol object at 0x7fdd148273e0>, <rdkit.Chem.rdchem.Mol object at 0x7fdd14818ba0>, <rdkit.Chem.rdchem.Mol object at 0x7fdd14818350>, <rdkit.Chem.rdchem.Mol object at 0x7fdd14818740>, <rdkit.Chem.rdchem.Mol object at 0x7fdd148180b0>, '.', <rdkit.Chem.rdchem.Mol object at 0x7fdd14819ee0>, <rdkit.Chem.rdchem.Mol object at 0x7fdd1481a030>, <rdkit.Chem.rdchem.Mol object at 0x7fdd14825d20>, <rdkit.Chem.rdchem.Mol object at 0x7fdd14818890>, <rdkit.Chem.rdchem.Mol object at 0x7fdd14818a50>]","[0, 0, 0, 0, 732, 733, 734, 735, 736, 737, 738, 1, 739, 740, 741, 742, 743]"
FTAZ,ITIC-Th,-5.43,-3.3200000000000003,-5.673333333333334,-3.908888888888889,0.667,CF,DIO,25.0,MoOx,ZnO,8.88,8.88,0.915,61.26,"[<rdkit.Chem.rdchem.Mol object at 0x7fdd14826a40>, <rdkit.Chem.rdchem.Mol object at 0x7fdd14818580>, <rdkit.Chem.rdchem.Mol object at 0x7fdd14826dc0>, <rdkit.Chem.rdchem.Mol object at 0x7fdd148192a0>, <rdkit.Chem.rdchem.Mol object at 0x7fdd148182e0>, <rdkit.Chem.rdchem.Mol object at 0x7fdd1481ac00>]","[<rdkit.Chem.rdchem.Mol object at 0x7fdd148185f0>, <rdkit.Chem.rdchem.Mol object at 0x7fdd14818820>, <rdkit.Chem.rdchem.Mol object at 0x7fdd14818cf0>, <rdkit.Chem.rdchem.Mol object at 0x7fdd14818660>, <rdkit.Chem.rdchem.Mol object at 0x7fdd1481a730>]","[<rdkit.Chem.rdchem.Mol object at 0x7fdd14826a40>, <rdkit.Chem.rdchem.Mol object at 0x7fdd14818580>, <rdkit.Chem.rdchem.Mol object at 0x7fdd14826dc0>, <rdkit.Chem.rdchem.Mol object at 0x7fdd148192a0>, <rdkit.Chem.rdchem.Mol object at 0x7fdd148182e0>, <rdkit.Chem.rdchem.Mol object at 0x7fdd1481ac00>, '.', <rdkit.Chem.rdchem.Mol object at 0x7fdd148185f0>, <rdkit.Chem.rdchem.Mol object at 0x7fdd14818820>, <rdkit.Chem.rdchem.Mol object at 0x7fdd14818cf0>, <rdkit.Chem.rdchem.Mol object at 0x7fdd14818660>, <rdkit.Chem.rdchem.Mol object at 0x7fdd1481a730>]","[0, 0, 0, 0, 0, 744, 745, 746, 747, 748, 749, 1, 750, 751, 752, 753, 754]"
FTAZ,ITIC-Th1,-5.43,-3.3200000000000003,-5.720000000000001,-4.065,0.667,CF,DIO,25.0,MoOx,ZnO,12.1,12.1,0.849,73.73,"[<rdkit.Chem.rdchem.Mol object at 0x7fdd14827990>, <rdkit.Chem.rdchem.Mol object at 0x7fdd14819000>, <rdkit.Chem.rdchem.Mol object at 0x7fdd148189e0>, <rdkit.Chem.rdchem.Mol object at 0x7fdd148186d0>, <rdkit.Chem.rdchem.Mol object at 0x7fdd14818200>, <rdkit.Chem.rdchem.Mol object at 0x7fdd14819930>]","[<rdkit.Chem.rdchem.Mol object at 0x7fdd14819690>, <rdkit.Chem.rdchem.Mol object at 0x7fdd148199a0>, <rdkit.Chem.rdchem.Mol object at 0x7fdd14819150>, <rdkit.Chem.rdchem.Mol object at 0x7fdd14818970>, <rdkit.Chem.rdchem.Mol object at 0x7fdd14819e00>]","[<rdkit.Chem.rdchem.Mol object at 0x7fdd14827990>, <rdkit.Chem.rdchem.Mol object at 0x7fdd14819000>, <rdkit.Chem.rdchem.Mol object at 0x7fdd148189e0>, <rdkit.Chem.rdchem.Mol object at 0x7fdd148186d0>, <rdkit.Chem.rdchem.Mol object at 0x7fdd14818200>, <rdkit.Chem.rdchem.Mol object at 0x7fdd14819930>, '.', <rdkit.Chem.rdchem.Mol object at 0x7fdd14819690>, <rdkit.Chem.rdchem.Mol object at 0x7fdd148199a0>, <rdkit.Chem.rdchem.Mol object at 0x7fdd14819150>, <rdkit.Chem.rdchem.Mol object at 0x7fdd14818970>, <rdkit.Chem.rdchem.Mol object at 0x7fdd14819e00>]","[0, 0, 0, 0, 0, 755, 756, 757, 758, 759, 760, 1, 761, 762, 763, 764, 765]"
FTAZ,ITIC-Th2,-5.43,-3.3200000000000003,-5.75,-4.07,0.667,CF,DIO,25.0,MoOx,ZnO,9.06,9.05,0.751,70.07,"[<rdkit.Chem.rdchem.Mol object at 0x7fdd148187b0>, <rdkit.Chem.rdchem.Mol object at 0x7fdd14818f90>, <rdkit.Chem.rdchem.Mol object at 0x7fdd14819b60>, <rdkit.Chem.rdchem.Mol object at 0x7fdd14819cb0>, <rdkit.Chem.rdchem.Mol object at 0x7fdd14819d20>, <rdkit.Chem.rdchem.Mol object at 0x7fdd14818e40>]","[<rdkit.Chem.rdchem.Mol object at 0x7fdd14818d60>, <rdkit.Chem.rdchem.Mol object at 0x7fdd14818270>, <rdkit.Chem.rdchem.Mol object at 0x7fdd14819a10>, <rdkit.Chem.rdchem.Mol object at 0x7fdd14819380>, <rdkit.Chem.rdchem.Mol object at 0x7fdd1481a650>]","[<rdkit.Chem.rdchem.Mol object at 0x7fdd148187b0>, <rdkit.Chem.rdchem.Mol object at 0x7fdd14818f90>, <rdkit.Chem.rdchem.Mol object at 0x7fdd14819b60>, <rdkit.Chem.rdchem.Mol object at 0x7fdd14819cb0>, <rdkit.Chem.rdchem.Mol object at 0x7fdd14819d20>, <rdkit.Chem.rdchem.Mol object at 0x7fdd14818e40>, '.', <rdkit.Chem.rdchem.Mol object at 0x7fdd14818d60>, <rdkit.Chem.rdchem.Mol object at 0x7fdd14818270>, <rdkit.Chem.rdchem.Mol object at 0x7fdd14819a10>, <rdkit.Chem.rdchem.Mol object at 0x7fdd14819380>, <rdkit.Chem.rdchem.Mol object at 0x7fdd1481a650>]","[0, 0, 0, 0, 0, 766, 767, 768, 769, 770, 771, 1, 772, 773, 774, 775, 776]"
FTAZ,ITIC-Th3,-5.43,-3.3200000000000003,-5.67,-3.73,0.667,CF,DIO,25.0,MoOx,ZnO,10.7,10.74,0.962,68.33,"[<rdkit.Chem.rdchem.Mol object at 0x7fdd14819540>, <rdkit.Chem.rdchem.Mol object at 0x7fdd14819850>, <rdkit.Chem.rdchem.Mol object at 0x7fdd14819af0>, <rdkit.Chem.rdchem.Mol object at 0x7fdd14819620>, <rdkit.Chem.rdchem.Mol object at 0x7fdd148195b0>, <rdkit.Chem.rdchem.Mol object at 0x7fdd14819460>]","[<rdkit.Chem.rdchem.Mol object at 0x7fdd14819a80>, <rdkit.Chem.rdchem.Mol object at 0x7fdd1481a0a0>, <rdkit.Chem.rdchem.Mol object at 0x7fdd14819f50>, <rdkit.Chem.rdchem.Mol object at 0x7fdd14818b30>, <rdkit.Chem.rdchem.Mol object at 0x7fdd148198c0>, <rdkit.Chem.rdchem.Mol object at 0x7fdd1481a960>]","[<rdkit.Chem.rdchem.Mol object at 0x7fdd14819540>, <rdkit.Chem.rdchem.Mol object at 0x7fdd14819850>, <rdkit.Chem.rdchem.Mol object at 0x7fdd14819af0>, <rdkit.Chem.rdchem.Mol object at 0x7fdd14819620>, <rdkit.Chem.rdchem.Mol object at 0x7fdd148195b0>, <rdkit.Chem.rdchem.Mol object at 0x7fdd14819460>, '.', <rdkit.Chem.rdchem.Mol object at 0x7fdd14819a80>, <rdkit.Chem.rdchem.Mol object at 0x7fdd1481a0a0>, <rdkit.Chem.rdchem.Mol object at 0x7fdd14819f50>, <rdkit.Chem.rdchem.Mol object at 0x7fdd14818b30>, <rdkit.Chem.rdchem.Mol object at 0x7fdd148198c0>, <rdkit.Chem.rdchem.Mol object at 0x7fdd1481a960>]","[0, 0, 0, 0, 777, 778, 779, 780, 781, 782, 1, 783, 784, 785, 786, 787, 788]"
J52,IT-M,-5.218571428571429,-3.341428571428572,-5.513571428571429,-3.808,1.0,CB,DIO,150.0,PEDOT:PSS,PFN-Br,9.4,9.38,0.843,65.1,"[<rdkit.Chem.rdchem.Mol object at 0x7fdd14818f20>, <rdkit.Chem.rdchem.Mol object at 0x7fdd14819e70>, <rdkit.Chem.rdchem.Mol object at 0x7fdd14818430>, <rdkit.Chem.rdchem.Mol object at 0x7fdd148183c0>, <rdkit.Chem.rdchem.Mol object at 0x7fdd148184a0>, <rdkit.Chem.rdchem.Mol object at 0x7fdd1481a1f0>]","[<rdkit.Chem.rdchem.Mol object at 0x7fdd1481b530>, <rdkit.Chem.rdchem.Mol object at 0x7fdd14819310>, <rdkit.Chem.rdchem.Mol object at 0x7fdd14818040>, <rdkit.Chem.rdchem.Mol object at 0x7fdd1481a880>, <rdkit.Chem.rdchem.Mol object at 0x7fdd1481a340>]","[<rdkit.Chem.rdchem.Mol object at 0x7fdd14818f20>, <rdkit.Chem.rdchem.Mol object at 0x7fdd14819e70>, <rdkit.Chem.rdchem.Mol object at 0x7fdd14818430>, <rdkit.Chem.rdchem.Mol object at 0x7fdd148183c0>, <rdkit.Chem.rdchem.Mol object at 0x7fdd148184a0>, <rdkit.Chem.rdchem.Mol object at 0x7fdd1481a1f0>, '.', <rdkit.Chem.rdchem.Mol object at 0x7fdd1481b530>, <rdkit.Chem.rdchem.Mol object at 0x7fdd14819310>, <rdkit.Chem.rdchem.Mol object at 0x7fdd14818040>, <rdkit.Chem.rdchem.Mol object at 0x7fdd1481a880>, <rdkit.Chem.rdchem.Mol object at 0x7fdd1481a340>]","[0, 0, 0, 0, 0, 789, 790, 791, 792, 793, 794, 1, 795, 796, 797, 798, 799]"
J52,IEICO,-5.218571428571429,-3.341428571428572,-5.32,-3.95,1.0,CB,DIO,150.0,PEDOT:PSS,PFN-Br,6.5,6.53,0.848,51.0,"[<rdkit.Chem.rdchem.Mol object at 0x7fdd1481a5e0>, <rdkit.Chem.rdchem.Mol object at 0x7fdd1481a500>, <rdkit.Chem.rdchem.Mol object at 0x7fdd1481a7a0>, <rdkit.Chem.rdchem.Mol object at 0x7fdd14819770>, <rdkit.Chem.rdchem.Mol object at 0x7fdd1481a420>, <rdkit.Chem.rdchem.Mol object at 0x7fdd1481bd80>]","[<rdkit.Chem.rdchem.Mol object at 0x7fdd1481b7d0>, <rdkit.Chem.rdchem.Mol object at 0x7fdd1481ace0>, <rdkit.Chem.rdchem.Mol object at 0x7fdd1481aab0>, <rdkit.Chem.rdchem.Mol object at 0x7fdd14819d90>, <rdkit.Chem.rdchem.Mol object at 0x7fdd14819070>, <rdkit.Chem.rdchem.Mol object at 0x7fdd14818900>, <rdkit.Chem.rdchem.Mol object at 0x7fdd1481b5a0>, <rdkit.Chem.rdchem.Mol object at 0x7fdd1481a2d0>]","[<rdkit.Chem.rdchem.Mol object at 0x7fdd1481a5e0>, <rdkit.Chem.rdchem.Mol object at 0x7fdd1481a500>, <rdkit.Chem.rdchem.Mol object at 0x7fdd1481a7a0>, <rdkit.Chem.rdchem.Mol object at 0x7fdd14819770>, <rdkit.Chem.rdchem.Mol object at 0x7fdd1481a420>, <rdkit.Chem.rdchem.Mol object at 0x7fdd1481bd80>, '.', <rdkit.Chem.rdchem.Mol object at 0x7fdd1481b7d0>, <rdkit.Chem.rdchem.Mol object at 0x7fdd1481ace0>, <rdkit.Chem.rdchem.Mol object at 0x7fdd1481aab0>, <rdkit.Chem.rdchem.Mol object at 0x7fdd14819d90>, <rdkit.Chem.rdchem.Mol object at 0x7fdd14819070>, <rdkit.Chem.rdchem.Mol object at 0x7fdd14818900>, <rdkit.Chem.rdchem.Mol object at 0x7fdd1481b5a0>, <rdkit.Chem.rdchem.Mol object at 0x7fdd1481a2d0>]","[0, 0, 800, 801, 802, 803, 804, 805, 1, 806, 807, 808, 809, 810, 811, 812, 813]"
J71,ITVffIC,-5.353333333333333,-3.4318181818181825,-5.58,-4.04,0.833,CF,CN,160.0,PEDOT:PSS,PDINO,10.54,10.54,0.81,63.18,"[<rdkit.Chem.rdchem.Mol object at 0x7fdd1481b220>, <rdkit.Chem.rdchem.Mol object at 0x7fdd1481bbc0>, <rdkit.Chem.rdchem.Mol object at 0x7fdd1481b840>, <rdkit.Chem.rdchem.Mol object at 0x7fdd1481b3e0>, <rdkit.Chem.rdchem.Mol object at 0x7fdd1481af10>, <rdkit.Chem.rdchem.Mol object at 0x7fdd1481ab90>]","[<rdkit.Chem.rdchem.Mol object at 0x7fdd1481b450>, <rdkit.Chem.rdchem.Mol object at 0x7fdd14819c40>, <rdkit.Chem.rdchem.Mol object at 0x7fdd1481b610>, <rdkit.Chem.rdchem.Mol object at 0x7fdd1481aa40>, <rdkit.Chem.rdchem.Mol object at 0x7fdd1481b760>, <rdkit.Chem.rdchem.Mol object at 0x7fdd14818c80>]","[<rdkit.Chem.rdchem.Mol object at 0x7fdd1481b220>, <rdkit.Chem.rdchem.Mol object at 0x7fdd1481bbc0>, <rdkit.Chem.rdchem.Mol object at 0x7fdd1481b840>, <rdkit.Chem.rdchem.Mol object at 0x7fdd1481b3e0>, <rdkit.Chem.rdchem.Mol object at 0x7fdd1481af10>, <rdkit.Chem.rdchem.Mol object at 0x7fdd1481ab90>, '.', <rdkit.Chem.rdchem.Mol object at 0x7fdd1481b450>, <rdkit.Chem.rdchem.Mol object at 0x7fdd14819c40>, <rdkit.Chem.rdchem.Mol object at 0x7fdd1481b610>, <rdkit.Chem.rdchem.Mol object at 0x7fdd1481aa40>, <rdkit.Chem.rdchem.Mol object at 0x7fdd1481b760>, <rdkit.Chem.rdchem.Mol object at 0x7fdd14818c80>]","[0, 0, 0, 0, 814, 815, 816, 817, 818, 819, 1, 820, 821, 822, 823, 824, 825]"