Donor,Acceptor,HOMO_D_eV,LUMO_D_eV,HOMO_A_eV,LUMO_A_eV,D_A_ratio_m_m,solvent,solvent_additive,annealing_temperature,hole_contact_layer,electron_contact_layer,PCE_percent,calc_PCE_percent,Voc_V,FF_percent,Donor_BRICS,Acceptor_BRICS,DA_pair_BRICS,DA_tokenized_BRICS
PBDB-T,ITAN-IDT,-5.297714285714285,-3.4170000000000003,-5.42,-3.69,1.5,CB,_,140.0,PEDOT:PSS,Ca,2.0,1.72,1.18,39.19,"[<rdkit.Chem.rdchem.Mol object at 0x7fdd14755930>, <rdkit.Chem.rdchem.Mol object at 0x7fdd14757920>, <rdkit.Chem.rdchem.Mol object at 0x7fdd14754200>, <rdkit.Chem.rdchem.Mol object at 0x7fdd14757530>, <rdkit.Chem.rdchem.Mol object at 0x7fdd1475c040>]","[<rdkit.Chem.rdchem.Mol object at 0x7fdd14757c30>, <rdkit.Chem.rdchem.Mol object at 0x7fdd14757d10>, <rdkit.Chem.rdchem.Mol object at 0x7fdd14756ea0>, <rdkit.Chem.rdchem.Mol object at 0x7fdd14757ca0>, <rdkit.Chem.rdchem.Mol object at 0x7fdd14757840>]","[<rdkit.Chem.rdchem.Mol object at 0x7fdd14755930>, <rdkit.Chem.rdchem.Mol object at 0x7fdd14757920>, <rdkit.Chem.rdchem.Mol object at 0x7fdd14754200>, <rdkit.Chem.rdchem.Mol object at 0x7fdd14757530>, <rdkit.Chem.rdchem.Mol object at 0x7fdd1475c040>, '.', <rdkit.Chem.rdchem.Mol object at 0x7fdd14757c30>, <rdkit.Chem.rdchem.Mol object at 0x7fdd14757d10>, <rdkit.Chem.rdchem.Mol object at 0x7fdd14756ea0>, <rdkit.Chem.rdchem.Mol object at 0x7fdd14757ca0>, <rdkit.Chem.rdchem.Mol object at 0x7fdd14757840>]","[0, 0, 0, 0, 0, 0, 4166, 4167, 4168, 4169, 4170, 1, 4171, 4172, 4173, 4174, 4175]"
PBDT-3TCO,IT-4F,-5.5,-3.24,-5.66875,-4.060416666666667,1.0,CB,DIO,25.0,PEDOT:PSS,PFN-Br,11.52,11.56,0.88,62.7,"[<rdkit.Chem.rdchem.Mol object at 0x7fdd147560a0>, <rdkit.Chem.rdchem.Mol object at 0x7fdd14754190>, <rdkit.Chem.rdchem.Mol object at 0x7fdd14757450>, <rdkit.Chem.rdchem.Mol object at 0x7fdd147569d0>, <rdkit.Chem.rdchem.Mol object at 0x7fdd14756880>, <rdkit.Chem.rdchem.Mol object at 0x7fdd14757ed0>, <rdkit.Chem.rdchem.Mol object at 0x7fdd1475c0b0>]","[<rdkit.Chem.rdchem.Mol object at 0x7fdd147574c0>, <rdkit.Chem.rdchem.Mol object at 0x7fdd147576f0>, <rdkit.Chem.rdchem.Mol object at 0x7fdd147578b0>, <rdkit.Chem.rdchem.Mol object at 0x7fdd147573e0>, <rdkit.Chem.rdchem.Mol object at 0x7fdd1475c970>]","[<rdkit.Chem.rdchem.Mol object at 0x7fdd147560a0>, <rdkit.Chem.rdchem.Mol object at 0x7fdd14754190>, <rdkit.Chem.rdchem.Mol object at 0x7fdd14757450>, <rdkit.Chem.rdchem.Mol object at 0x7fdd147569d0>, <rdkit.Chem.rdchem.Mol object at 0x7fdd14756880>, <rdkit.Chem.rdchem.Mol object at 0x7fdd14757ed0>, <rdkit.Chem.rdchem.Mol object at 0x7fdd1475c0b0>, '.', <rdkit.Chem.rdchem.Mol object at 0x7fdd147574c0>, <rdkit.Chem.rdchem.Mol object at 0x7fdd147576f0>, <rdkit.Chem.rdchem.Mol object at 0x7fdd147578b0>, <rdkit.Chem.rdchem.Mol object at 0x7fdd147573e0>, <rdkit.Chem.rdchem.Mol object at 0x7fdd1475c970>]","[0, 0, 0, 0, 4176, 4177, 4178, 4179, 4180, 4181, 4182, 1, 4183, 4184, 4185, 4186, 4187]"
PBDT-3T,IT-4F,-5.48,-3.21,-5.66875,-4.060416666666667,0.667,CB,DIO,25.0,PEDOT:PSS,PFN-Br,1.0,1.01,0.85,30.43,"[<rdkit.Chem.rdchem.Mol object at 0x7fdd14757a70>, <rdkit.Chem.rdchem.Mol object at 0x7fdd14757b50>, <rdkit.Chem.rdchem.Mol object at 0x7fdd14756e30>, <rdkit.Chem.rdchem.Mol object at 0x7fdd1475c5f0>, <rdkit.Chem.rdchem.Mol object at 0x7fdd1475c120>, <rdkit.Chem.rdchem.Mol object at 0x7fdd1475ccf0>]","[<rdkit.Chem.rdchem.Mol object at 0x7fdd14756f10>, <rdkit.Chem.rdchem.Mol object at 0x7fdd1475cf90>, <rdkit.Chem.rdchem.Mol object at 0x7fdd14757f40>, <rdkit.Chem.rdchem.Mol object at 0x7fdd14757140>, <rdkit.Chem.rdchem.Mol object at 0x7fdd1475c6d0>]","[<rdkit.Chem.rdchem.Mol object at 0x7fdd14757a70>, <rdkit.Chem.rdchem.Mol object at 0x7fdd14757b50>, <rdkit.Chem.rdchem.Mol object at 0x7fdd14756e30>, <rdkit.Chem.rdchem.Mol object at 0x7fdd1475c5f0>, <rdkit.Chem.rdchem.Mol object at 0x7fdd1475c120>, <rdkit.Chem.rdchem.Mol object at 0x7fdd1475ccf0>, '.', <rdkit.Chem.rdchem.Mol object at 0x7fdd14756f10>, <rdkit.Chem.rdchem.Mol object at 0x7fdd1475cf90>, <rdkit.Chem.rdchem.Mol object at 0x7fdd14757f40>, <rdkit.Chem.rdchem.Mol object at 0x7fdd14757140>, <rdkit.Chem.rdchem.Mol object at 0x7fdd1475c6d0>]","[0, 0, 0, 0, 0, 4188, 4189, 4190, 4191, 4192, 4193, 1, 4194, 4195, 4196, 4197, 4198]"
PTB7-Th,NFDTS,-5.204782608695651,-3.5391891891891896,-5.36,-3.92,0.833,CF,_,25.0,PEDOT:PSS,PFN-Br,6.15,6.15,0.67,48.9,"[<rdkit.Chem.rdchem.Mol object at 0x7fdd14757bc0>, <rdkit.Chem.rdchem.Mol object at 0x7fdd14757760>, <rdkit.Chem.rdchem.Mol object at 0x7fdd14757a00>, <rdkit.Chem.rdchem.Mol object at 0x7fdd147567a0>, <rdkit.Chem.rdchem.Mol object at 0x7fdd1475cac0>, <rdkit.Chem.rdchem.Mol object at 0x7fdd1475c7b0>, <rdkit.Chem.rdchem.Mol object at 0x7fdd1475d0e0>]","[<rdkit.Chem.rdchem.Mol object at 0x7fdd14757610>, <rdkit.Chem.rdchem.Mol object at 0x7fdd1475c430>, <rdkit.Chem.rdchem.Mol object at 0x7fdd14756810>, <rdkit.Chem.rdchem.Mol object at 0x7fdd1475c740>]","[<rdkit.Chem.rdchem.Mol object at 0x7fdd14757bc0>, <rdkit.Chem.rdchem.Mol object at 0x7fdd14757760>, <rdkit.Chem.rdchem.Mol object at 0x7fdd14757a00>, <rdkit.Chem.rdchem.Mol object at 0x7fdd147567a0>, <rdkit.Chem.rdchem.Mol object at 0x7fdd1475cac0>, <rdkit.Chem.rdchem.Mol object at 0x7fdd1475c7b0>, <rdkit.Chem.rdchem.Mol object at 0x7fdd1475d0e0>, '.', <rdkit.Chem.rdchem.Mol object at 0x7fdd14757610>, <rdkit.Chem.rdchem.Mol object at 0x7fdd1475c430>, <rdkit.Chem.rdchem.Mol object at 0x7fdd14756810>, <rdkit.Chem.rdchem.Mol object at 0x7fdd1475c740>]","[0, 0, 0, 0, 0, 4199, 4200, 4201, 4202, 4203, 4204, 4205, 1, 4206, 4207, 4208, 4209]"
PTB7-Th,NFDTSB,-5.204782608695651,-3.5391891891891896,-5.56,-3.85,1.0,CF,_,25.0,PEDOT:PSS,PFN-Br,9.6,9.61,0.75,63.6,"[<rdkit.Chem.rdchem.Mol object at 0x7fdd147575a0>, <rdkit.Chem.rdchem.Mol object at 0x7fdd14756dc0>, <rdkit.Chem.rdchem.Mol object at 0x7fdd14754e40>, <rdkit.Chem.rdchem.Mol object at 0x7fdd1475c270>, <rdkit.Chem.rdchem.Mol object at 0x7fdd1475c9e0>, <rdkit.Chem.rdchem.Mol object at 0x7fdd1475c820>, <rdkit.Chem.rdchem.Mol object at 0x7fdd1475d000>]","[<rdkit.Chem.rdchem.Mol object at 0x7fdd1475c510>, <rdkit.Chem.rdchem.Mol object at 0x7fdd1475d070>, <rdkit.Chem.rdchem.Mol object at 0x7fdd1475cc10>, <rdkit.Chem.rdchem.Mol object at 0x7fdd1475ca50>, <rdkit.Chem.rdchem.Mol object at 0x7fdd1475d150>, <rdkit.Chem.rdchem.Mol object at 0x7fdd1475c4a0>]","[<rdkit.Chem.rdchem.Mol object at 0x7fdd147575a0>, <rdkit.Chem.rdchem.Mol object at 0x7fdd14756dc0>, <rdkit.Chem.rdchem.Mol object at 0x7fdd14754e40>, <rdkit.Chem.rdchem.Mol object at 0x7fdd1475c270>, <rdkit.Chem.rdchem.Mol object at 0x7fdd1475c9e0>, <rdkit.Chem.rdchem.Mol object at 0x7fdd1475c820>, <rdkit.Chem.rdchem.Mol object at 0x7fdd1475d000>, '.', <rdkit.Chem.rdchem.Mol object at 0x7fdd1475c510>, <rdkit.Chem.rdchem.Mol object at 0x7fdd1475d070>, <rdkit.Chem.rdchem.Mol object at 0x7fdd1475cc10>, <rdkit.Chem.rdchem.Mol object at 0x7fdd1475ca50>, <rdkit.Chem.rdchem.Mol object at 0x7fdd1475d150>, <rdkit.Chem.rdchem.Mol object at 0x7fdd1475c4a0>]","[0, 0, 0, 4210, 4211, 4212, 4213, 4214, 4215, 4216, 1, 4217, 4218, 4219, 4220, 4221, 4222]"
PBTIBDTT,ITIC-F,-5.47,-3.6,-5.619999999999999,-4.02,1.0,CB,_,25.0,PEDOT:PSS,ZnO,11.19,11.19,0.921,74.1,"[<rdkit.Chem.rdchem.Mol object at 0x7fdd14756c00>, <rdkit.Chem.rdchem.Mol object at 0x7fdd1475ceb0>, <rdkit.Chem.rdchem.Mol object at 0x7fdd1475cdd0>, <rdkit.Chem.rdchem.Mol object at 0x7fdd1475da10>, <rdkit.Chem.rdchem.Mol object at 0x7fdd1475daf0>, <rdkit.Chem.rdchem.Mol object at 0x7fdd1475de70>, <rdkit.Chem.rdchem.Mol object at 0x7fdd1475e180>, <rdkit.Chem.rdchem.Mol object at 0x7fdd1475e260>]","[<rdkit.Chem.rdchem.Mol object at 0x7fdd1475e880>, <rdkit.Chem.rdchem.Mol object at 0x7fdd1475dcb0>, <rdkit.Chem.rdchem.Mol object at 0x7fdd1475e0a0>, <rdkit.Chem.rdchem.Mol object at 0x7fdd1475e1f0>, <rdkit.Chem.rdchem.Mol object at 0x7fdd1475d540>]","[<rdkit.Chem.rdchem.Mol object at 0x7fdd14756c00>, <rdkit.Chem.rdchem.Mol object at 0x7fdd1475ceb0>, <rdkit.Chem.rdchem.Mol object at 0x7fdd1475cdd0>, <rdkit.Chem.rdchem.Mol object at 0x7fdd1475da10>, <rdkit.Chem.rdchem.Mol object at 0x7fdd1475daf0>, <rdkit.Chem.rdchem.Mol object at 0x7fdd1475de70>, <rdkit.Chem.rdchem.Mol object at 0x7fdd1475e180>, <rdkit.Chem.rdchem.Mol object at 0x7fdd1475e260>, '.', <rdkit.Chem.rdchem.Mol object at 0x7fdd1475e880>, <rdkit.Chem.rdchem.Mol object at 0x7fdd1475dcb0>, <rdkit.Chem.rdchem.Mol object at 0x7fdd1475e0a0>, <rdkit.Chem.rdchem.Mol object at 0x7fdd1475e1f0>, <rdkit.Chem.rdchem.Mol object at 0x7fdd1475d540>]","[0, 0, 0, 4223, 4224, 4225, 4226, 4227, 4228, 4229, 4230, 1, 4231, 4232, 4233, 4234, 4235]"
PBDB-T,DTNIF,-5.297714285714285,-3.4170000000000003,-5.82,-3.92,1.0,CB,_,25.0,MoOx,ZnO,8.73,8.68,0.9,72.77,"[<rdkit.Chem.rdchem.Mol object at 0x7fdd14757060>, <rdkit.Chem.rdchem.Mol object at 0x7fdd1475e650>, <rdkit.Chem.rdchem.Mol object at 0x7fdd1475e340>, <rdkit.Chem.rdchem.Mol object at 0x7fdd1475d770>, <rdkit.Chem.rdchem.Mol object at 0x7fdd1475e500>]","[<rdkit.Chem.rdchem.Mol object at 0x7fdd1475eab0>, <rdkit.Chem.rdchem.Mol object at 0x7fdd1475d5b0>, <rdkit.Chem.rdchem.Mol object at 0x7fdd1475e2d0>, <rdkit.Chem.rdchem.Mol object at 0x7fdd1475cba0>]","[<rdkit.Chem.rdchem.Mol object at 0x7fdd14757060>, <rdkit.Chem.rdchem.Mol object at 0x7fdd1475e650>, <rdkit.Chem.rdchem.Mol object at 0x7fdd1475e340>, <rdkit.Chem.rdchem.Mol object at 0x7fdd1475d770>, <rdkit.Chem.rdchem.Mol object at 0x7fdd1475e500>, '.', <rdkit.Chem.rdchem.Mol object at 0x7fdd1475eab0>, <rdkit.Chem.rdchem.Mol object at 0x7fdd1475d5b0>, <rdkit.Chem.rdchem.Mol object at 0x7fdd1475e2d0>, <rdkit.Chem.rdchem.Mol object at 0x7fdd1475cba0>]","[0, 0, 0, 0, 0, 0, 0, 4236, 4237, 4238, 4239, 4240, 1, 4241, 4242, 4243, 4244]"
PBDB-T,DTNSF,-5.297714285714285,-3.4170000000000003,-5.52,-4.0,1.0,CB,_,25.0,MoOx,ZnO,7.15,7.28,0.92,54.62,"[<rdkit.Chem.rdchem.Mol object at 0x7fdd1475c190>, <rdkit.Chem.rdchem.Mol object at 0x7fdd1475d620>, <rdkit.Chem.rdchem.Mol object at 0x7fdd1475d700>, <rdkit.Chem.rdchem.Mol object at 0x7fdd1475e110>, <rdkit.Chem.rdchem.Mol object at 0x7fdd1475d3f0>]","[<rdkit.Chem.rdchem.Mol object at 0x7fdd1475ece0>, <rdkit.Chem.rdchem.Mol object at 0x7fdd1475e7a0>, <rdkit.Chem.rdchem.Mol object at 0x7fdd1475e3b0>, <rdkit.Chem.rdchem.Mol object at 0x7fdd1475d850>, <rdkit.Chem.rdchem.Mol object at 0x7fdd1475c660>]","[<rdkit.Chem.rdchem.Mol object at 0x7fdd1475c190>, <rdkit.Chem.rdchem.Mol object at 0x7fdd1475d620>, <rdkit.Chem.rdchem.Mol object at 0x7fdd1475d700>, <rdkit.Chem.rdchem.Mol object at 0x7fdd1475e110>, <rdkit.Chem.rdchem.Mol object at 0x7fdd1475d3f0>, '.', <rdkit.Chem.rdchem.Mol object at 0x7fdd1475ece0>, <rdkit.Chem.rdchem.Mol object at 0x7fdd1475e7a0>, <rdkit.Chem.rdchem.Mol object at 0x7fdd1475e3b0>, <rdkit.Chem.rdchem.Mol object at 0x7fdd1475d850>, <rdkit.Chem.rdchem.Mol object at 0x7fdd1475c660>]","[0, 0, 0, 0, 0, 0, 4245, 4246, 4247, 4248, 4249, 1, 4250, 4251, 4252, 4253, 4254]"
PBTIBDTT,Si4TIC-F,-5.47,-3.6,-5.58,-4.21,0.667,CB,CN,25.0,PEDOT:PSS,PDIN,10.2,10.2,0.78,69.4,"[<rdkit.Chem.rdchem.Mol object at 0x7fdd1475cc80>, <rdkit.Chem.rdchem.Mol object at 0x7fdd1475dbd0>, <rdkit.Chem.rdchem.Mol object at 0x7fdd1475d9a0>, <rdkit.Chem.rdchem.Mol object at 0x7fdd1475e960>, <rdkit.Chem.rdchem.Mol object at 0x7fdd1475d230>, <rdkit.Chem.rdchem.Mol object at 0x7fdd1475ef10>, <rdkit.Chem.rdchem.Mol object at 0x7fdd1475f060>, <rdkit.Chem.rdchem.Mol object at 0x7fdd1475f140>]","[<rdkit.Chem.rdchem.Mol object at 0x7fdd1475f8b0>, <rdkit.Chem.rdchem.Mol object at 0x7fdd1475e730>, <rdkit.Chem.rdchem.Mol object at 0x7fdd1475ec70>, <rdkit.Chem.rdchem.Mol object at 0x7fdd1475c3c0>]","[<rdkit.Chem.rdchem.Mol object at 0x7fdd1475cc80>, <rdkit.Chem.rdchem.Mol object at 0x7fdd1475dbd0>, <rdkit.Chem.rdchem.Mol object at 0x7fdd1475d9a0>, <rdkit.Chem.rdchem.Mol object at 0x7fdd1475e960>, <rdkit.Chem.rdchem.Mol object at 0x7fdd1475d230>, <rdkit.Chem.rdchem.Mol object at 0x7fdd1475ef10>, <rdkit.Chem.rdchem.Mol object at 0x7fdd1475f060>, <rdkit.Chem.rdchem.Mol object at 0x7fdd1475f140>, '.', <rdkit.Chem.rdchem.Mol object at 0x7fdd1475f8b0>, <rdkit.Chem.rdchem.Mol object at 0x7fdd1475e730>, <rdkit.Chem.rdchem.Mol object at 0x7fdd1475ec70>, <rdkit.Chem.rdchem.Mol object at 0x7fdd1475c3c0>]","[0, 0, 0, 0, 4255, 4256, 4257, 4258, 4259, 4260, 4261, 4262, 1, 4263, 4264, 4265, 4266]"
PDCBT-2F,IT-4F,-5.6,-3.67,-5.66875,-4.060416666666667,1.0,CF,DIO,25.0,MoOx,ZnO,11.6,11.3,0.92,69.0,"[<rdkit.Chem.rdchem.Mol object at 0x7fdd1475eff0>, <rdkit.Chem.rdchem.Mol object at 0x7fdd1475f0d0>, <rdkit.Chem.rdchem.Mol object at 0x7fdd1475f760>, <rdkit.Chem.rdchem.Mol object at 0x7fdd1475d1c0>, <rdkit.Chem.rdchem.Mol object at 0x7fdd1475f220>]","[<rdkit.Chem.rdchem.Mol object at 0x7fdd1475f370>, <rdkit.Chem.rdchem.Mol object at 0x7fdd1475ce40>, <rdkit.Chem.rdchem.Mol object at 0x7fdd1475f680>, <rdkit.Chem.rdchem.Mol object at 0x7fdd1475c900>, <rdkit.Chem.rdchem.Mol object at 0x7fdd1475c580>]","[<rdkit.Chem.rdchem.Mol object at 0x7fdd1475eff0>, <rdkit.Chem.rdchem.Mol object at 0x7fdd1475f0d0>, <rdkit.Chem.rdchem.Mol object at 0x7fdd1475f760>, <rdkit.Chem.rdchem.Mol object at 0x7fdd1475d1c0>, <rdkit.Chem.rdchem.Mol object at 0x7fdd1475f220>, '.', <rdkit.Chem.rdchem.Mol object at 0x7fdd1475f370>, <rdkit.Chem.rdchem.Mol object at 0x7fdd1475ce40>, <rdkit.Chem.rdchem.Mol object at 0x7fdd1475f680>, <rdkit.Chem.rdchem.Mol object at 0x7fdd1475c900>, <rdkit.Chem.rdchem.Mol object at 0x7fdd1475c580>]","[0, 0, 0, 0, 0, 0, 4267, 4268, 4269, 4270, 4271, 1, 4272, 4273, 4274, 4275, 4276]"
PTB7-Th,IDT-FBTR,-5.204782608695651,-3.5391891891891896,-5.47,-3.65,1.5,o-DCB,_,25.0,MoOx,ZnO,7.01,7.0,1.02,52.97,"[<rdkit.Chem.rdchem.Mol object at 0x7fdd1475dc40>, <rdkit.Chem.rdchem.Mol object at 0x7fdd1475ea40>, <rdkit.Chem.rdchem.Mol object at 0x7fdd1475eb90>, <rdkit.Chem.rdchem.Mol object at 0x7fdd1475d310>, <rdkit.Chem.rdchem.Mol object at 0x7fdd1475d8c0>, <rdkit.Chem.rdchem.Mol object at 0x7fdd1475de00>, <rdkit.Chem.rdchem.Mol object at 0x7fdd1475f1b0>]","[<rdkit.Chem.rdchem.Mol object at 0x7fdd1475da80>, <rdkit.Chem.rdchem.Mol object at 0x7fdd1475e9d0>, <rdkit.Chem.rdchem.Mol object at 0x7fdd1475dfc0>, <rdkit.Chem.rdchem.Mol object at 0x7fdd1475edc0>, <rdkit.Chem.rdchem.Mol object at 0x7fdd1475e570>]","[<rdkit.Chem.rdchem.Mol object at 0x7fdd1475dc40>, <rdkit.Chem.rdchem.Mol object at 0x7fdd1475ea40>, <rdkit.Chem.rdchem.Mol object at 0x7fdd1475eb90>, <rdkit.Chem.rdchem.Mol object at 0x7fdd1475d310>, <rdkit.Chem.rdchem.Mol object at 0x7fdd1475d8c0>, <rdkit.Chem.rdchem.Mol object at 0x7fdd1475de00>, <rdkit.Chem.rdchem.Mol object at 0x7fdd1475f1b0>, '.', <rdkit.Chem.rdchem.Mol object at 0x7fdd1475da80>, <rdkit.Chem.rdchem.Mol object at 0x7fdd1475e9d0>, <rdkit.Chem.rdchem.Mol object at 0x7fdd1475dfc0>, <rdkit.Chem.rdchem.Mol object at 0x7fdd1475edc0>, <rdkit.Chem.rdchem.Mol object at 0x7fdd1475e570>]","[0, 0, 0, 0, 4277, 4278, 4279, 4280, 4281, 4282, 4283, 1, 4284, 4285, 4286, 4287, 4288]"
PBT1-C-MW,ITCPTC,-5.46,-3.4,-5.604000000000001,-3.858000000000001,1.0,CF,_,100.0,PEDOT:PSS,ZrAcAc,12.8,12.77,0.94,79.0,"[<rdkit.Chem.rdchem.Mol object at 0x7fdd1475dd90>, <rdkit.Chem.rdchem.Mol object at 0x7fdd1475db60>, <rdkit.Chem.rdchem.Mol object at 0x7fdd1475df50>, <rdkit.Chem.rdchem.Mol object at 0x7fdd1475f3e0>, <rdkit.Chem.rdchem.Mol object at 0x7fdd1475fdf0>, <rdkit.Chem.rdchem.Mol object at 0x7fdd1476d7e0>, <rdkit.Chem.rdchem.Mol object at 0x7fdd1476d540>, <rdkit.Chem.rdchem.Mol object at 0x7fdd1476d620>]","[<rdkit.Chem.rdchem.Mol object at 0x7fdd1475f300>, <rdkit.Chem.rdchem.Mol object at 0x7fdd1475ed50>, <rdkit.Chem.rdchem.Mol object at 0x7fdd1475fa00>, <rdkit.Chem.rdchem.Mol object at 0x7fdd1475e420>, <rdkit.Chem.rdchem.Mol object at 0x7fdd1476d4d0>]","[<rdkit.Chem.rdchem.Mol object at 0x7fdd1475dd90>, <rdkit.Chem.rdchem.Mol object at 0x7fdd1475db60>, <rdkit.Chem.rdchem.Mol object at 0x7fdd1475df50>, <rdkit.Chem.rdchem.Mol object at 0x7fdd1475f3e0>, <rdkit.Chem.rdchem.Mol object at 0x7fdd1475fdf0>, <rdkit.Chem.rdchem.Mol object at 0x7fdd1476d7e0>, <rdkit.Chem.rdchem.Mol object at 0x7fdd1476d540>, <rdkit.Chem.rdchem.Mol object at 0x7fdd1476d620>, '.', <rdkit.Chem.rdchem.Mol object at 0x7fdd1475f300>, <rdkit.Chem.rdchem.Mol object at 0x7fdd1475ed50>, <rdkit.Chem.rdchem.Mol object at 0x7fdd1475fa00>, <rdkit.Chem.rdchem.Mol object at 0x7fdd1475e420>, <rdkit.Chem.rdchem.Mol object at 0x7fdd1476d4d0>]","[0, 0, 0, 4316, 4317, 4318, 4319, 4320, 4321, 4322, 4323, 1, 4324, 4325, 4326, 4327, 4328]"
PTZPF,BT-IC,-5.41,-3.42,-5.3775,-3.8575,1.0,CB,CN,120.0,PEDOT:PSS,PFN-Br,5.63,5.59,0.93,49.0,"[<rdkit.Chem.rdchem.Mol object at 0x7fdd1475dd20>, <rdkit.Chem.rdchem.Mol object at 0x7fdd1475f450>, <rdkit.Chem.rdchem.Mol object at 0x7fdd1475ff40>, <rdkit.Chem.rdchem.Mol object at 0x7fdd1475fe60>, <rdkit.Chem.rdchem.Mol object at 0x7fdd1476d700>, <rdkit.Chem.rdchem.Mol object at 0x7fdd1475ee30>, <rdkit.Chem.rdchem.Mol object at 0x7fdd1476de00>]","[<rdkit.Chem.rdchem.Mol object at 0x7fdd1475d380>, <rdkit.Chem.rdchem.Mol object at 0x7fdd1475cd60>, <rdkit.Chem.rdchem.Mol object at 0x7fdd1476d3f0>, <rdkit.Chem.rdchem.Mol object at 0x7fdd1475f5a0>, <rdkit.Chem.rdchem.Mol object at 0x7fdd1475e810>, <rdkit.Chem.rdchem.Mol object at 0x7fdd1476d2a0>, <rdkit.Chem.rdchem.Mol object at 0x7fdd1476d0e0>]","[<rdkit.Chem.rdchem.Mol object at 0x7fdd1475dd20>, <rdkit.Chem.rdchem.Mol object at 0x7fdd1475f450>, <rdkit.Chem.rdchem.Mol object at 0x7fdd1475ff40>, <rdkit.Chem.rdchem.Mol object at 0x7fdd1475fe60>, <rdkit.Chem.rdchem.Mol object at 0x7fdd1476d700>, <rdkit.Chem.rdchem.Mol object at 0x7fdd1475ee30>, <rdkit.Chem.rdchem.Mol object at 0x7fdd1476de00>, '.', <rdkit.Chem.rdchem.Mol object at 0x7fdd1475d380>, <rdkit.Chem.rdchem.Mol object at 0x7fdd1475cd60>, <rdkit.Chem.rdchem.Mol object at 0x7fdd1476d3f0>, <rdkit.Chem.rdchem.Mol object at 0x7fdd1475f5a0>, <rdkit.Chem.rdchem.Mol object at 0x7fdd1475e810>, <rdkit.Chem.rdchem.Mol object at 0x7fdd1476d2a0>, <rdkit.Chem.rdchem.Mol object at 0x7fdd1476d0e0>]","[0, 0, 4329, 4330, 4331, 4332, 4333, 4334, 4335, 1, 4336, 4337, 4338, 4339, 4340, 4341, 4342]"
PTZPF,BT-F,-5.41,-3.42,-5.57,-3.97,1.0,CB,CN,120.0,PEDOT:PSS,PFN-Br,7.27,7.18,0.88,49.0,"[<rdkit.Chem.rdchem.Mol object at 0x7fdd1475fae0>, <rdkit.Chem.rdchem.Mol object at 0x7fdd1475eb20>, <rdkit.Chem.rdchem.Mol object at 0x7fdd1476cf20>, <rdkit.Chem.rdchem.Mol object at 0x7fdd1475fed0>, <rdkit.Chem.rdchem.Mol object at 0x7fdd1476d460>, <rdkit.Chem.rdchem.Mol object at 0x7fdd1476c740>, <rdkit.Chem.rdchem.Mol object at 0x7fdd1476d070>]","[<rdkit.Chem.rdchem.Mol object at 0x7fdd1475fd80>, <rdkit.Chem.rdchem.Mol object at 0x7fdd1475fca0>, <rdkit.Chem.rdchem.Mol object at 0x7fdd1476d000>, <rdkit.Chem.rdchem.Mol object at 0x7fdd1475f4c0>, <rdkit.Chem.rdchem.Mol object at 0x7fdd1476cd60>, <rdkit.Chem.rdchem.Mol object at 0x7fdd1476d150>, <rdkit.Chem.rdchem.Mol object at 0x7fdd1476c5f0>]","[<rdkit.Chem.rdchem.Mol object at 0x7fdd1475fae0>, <rdkit.Chem.rdchem.Mol object at 0x7fdd1475eb20>, <rdkit.Chem.rdchem.Mol object at 0x7fdd1476cf20>, <rdkit.Chem.rdchem.Mol object at 0x7fdd1475fed0>, <rdkit.Chem.rdchem.Mol object at 0x7fdd1476d460>, <rdkit.Chem.rdchem.Mol object at 0x7fdd1476c740>, <rdkit.Chem.rdchem.Mol object at 0x7fdd1476d070>, '.', <rdkit.Chem.rdchem.Mol object at 0x7fdd1475fd80>, <rdkit.Chem.rdchem.Mol object at 0x7fdd1475fca0>, <rdkit.Chem.rdchem.Mol object at 0x7fdd1476d000>, <rdkit.Chem.rdchem.Mol object at 0x7fdd1475f4c0>, <rdkit.Chem.rdchem.Mol object at 0x7fdd1476cd60>, <rdkit.Chem.rdchem.Mol object at 0x7fdd1476d150>, <rdkit.Chem.rdchem.Mol object at 0x7fdd1476c5f0>]","[0, 0, 4343, 4344, 4345, 4346, 4347, 4348, 4349, 1, 4350, 4351, 4352, 4353, 4354, 4355, 4356]"