Donor,Acceptor,HOMO_D_eV,LUMO_D_eV,HOMO_A_eV,LUMO_A_eV,D_A_ratio_m_m,solvent,solvent_additive,annealing_temperature,hole_contact_layer,electron_contact_layer,PCE_percent,calc_PCE_percent,Voc_V,FF_percent,Donor_BRICS,Acceptor_BRICS,DA_pair_BRICS,DA_tokenized_BRICS
P3HT,ATT-3,-5.057777777777777,-2.989444444444445,-5.32,-3.4,1.25,CF,_,130.0,PEDOT:PSS,Ca,6.26,6.28,0.927,62.0,"[<rdkit.Chem.rdchem.Mol object at 0x7fdd14867df0>, <rdkit.Chem.rdchem.Mol object at 0x7fdd14867610>, <rdkit.Chem.rdchem.Mol object at 0x7fdd148670d0>, <rdkit.Chem.rdchem.Mol object at 0x7fdd14866880>]","[<rdkit.Chem.rdchem.Mol object at 0x7fdd14867990>, <rdkit.Chem.rdchem.Mol object at 0x7fdd148678b0>, <rdkit.Chem.rdchem.Mol object at 0x7fdd14866f80>, <rdkit.Chem.rdchem.Mol object at 0x7fdd148662d0>, <rdkit.Chem.rdchem.Mol object at 0x7fdd14867a70>, <rdkit.Chem.rdchem.Mol object at 0x7fdd14866260>, <rdkit.Chem.rdchem.Mol object at 0x7fdd14866110>, <rdkit.Chem.rdchem.Mol object at 0x7fdd14866ea0>, <rdkit.Chem.rdchem.Mol object at 0x7fdd14866d50>]","[<rdkit.Chem.rdchem.Mol object at 0x7fdd14867df0>, <rdkit.Chem.rdchem.Mol object at 0x7fdd14867610>, <rdkit.Chem.rdchem.Mol object at 0x7fdd148670d0>, <rdkit.Chem.rdchem.Mol object at 0x7fdd14866880>, '.', <rdkit.Chem.rdchem.Mol object at 0x7fdd14867990>, <rdkit.Chem.rdchem.Mol object at 0x7fdd148678b0>, <rdkit.Chem.rdchem.Mol object at 0x7fdd14866f80>, <rdkit.Chem.rdchem.Mol object at 0x7fdd148662d0>, <rdkit.Chem.rdchem.Mol object at 0x7fdd14867a70>, <rdkit.Chem.rdchem.Mol object at 0x7fdd14866260>, <rdkit.Chem.rdchem.Mol object at 0x7fdd14866110>, <rdkit.Chem.rdchem.Mol object at 0x7fdd14866ea0>, <rdkit.Chem.rdchem.Mol object at 0x7fdd14866d50>]","[0, 0, 0, 1477, 1478, 1479, 1480, 1, 1481, 1482, 1483, 1484, 1485, 1486, 1487, 1488, 1489]"
PBDB-T,IT-O1,-5.297714285714285,-3.4170000000000003,-5.38,-3.33,1.0,CB,_,130.0,PEDOT:PSS,PFN-Br,11.6,11.62,0.93,72.0,"[<rdkit.Chem.rdchem.Mol object at 0x7fdd14866500>, <rdkit.Chem.rdchem.Mol object at 0x7fdd148668f0>, <rdkit.Chem.rdchem.Mol object at 0x7fdd14866730>, <rdkit.Chem.rdchem.Mol object at 0x7fdd14864970>, <rdkit.Chem.rdchem.Mol object at 0x7fdd148653f0>]","[<rdkit.Chem.rdchem.Mol object at 0x7fdd14865620>, <rdkit.Chem.rdchem.Mol object at 0x7fdd14864820>, <rdkit.Chem.rdchem.Mol object at 0x7fdd148652a0>, <rdkit.Chem.rdchem.Mol object at 0x7fdd148675a0>, <rdkit.Chem.rdchem.Mol object at 0x7fdd148658c0>, <rdkit.Chem.rdchem.Mol object at 0x7fdd14867760>]","[<rdkit.Chem.rdchem.Mol object at 0x7fdd14866500>, <rdkit.Chem.rdchem.Mol object at 0x7fdd148668f0>, <rdkit.Chem.rdchem.Mol object at 0x7fdd14866730>, <rdkit.Chem.rdchem.Mol object at 0x7fdd14864970>, <rdkit.Chem.rdchem.Mol object at 0x7fdd148653f0>, '.', <rdkit.Chem.rdchem.Mol object at 0x7fdd14865620>, <rdkit.Chem.rdchem.Mol object at 0x7fdd14864820>, <rdkit.Chem.rdchem.Mol object at 0x7fdd148652a0>, <rdkit.Chem.rdchem.Mol object at 0x7fdd148675a0>, <rdkit.Chem.rdchem.Mol object at 0x7fdd148658c0>, <rdkit.Chem.rdchem.Mol object at 0x7fdd14867760>]","[0, 0, 0, 0, 0, 1490, 1491, 1492, 1493, 1494, 1, 1495, 1496, 1497, 1498, 1499, 1500]"
PBDB-T,IT-O2,-5.297714285714285,-3.4170000000000003,-5.37,-3.31,1.0,CB,_,130.0,PEDOT:PSS,PFN-Br,9.3,9.31,0.97,62.6,"[<rdkit.Chem.rdchem.Mol object at 0x7fdd14867060>, <rdkit.Chem.rdchem.Mol object at 0x7fdd14866b20>, <rdkit.Chem.rdchem.Mol object at 0x7fdd14866650>, <rdkit.Chem.rdchem.Mol object at 0x7fdd148667a0>, <rdkit.Chem.rdchem.Mol object at 0x7fdd148644a0>]","[<rdkit.Chem.rdchem.Mol object at 0x7fdd14866b90>, <rdkit.Chem.rdchem.Mol object at 0x7fdd148647b0>, <rdkit.Chem.rdchem.Mol object at 0x7fdd14866f10>, <rdkit.Chem.rdchem.Mol object at 0x7fdd14864350>, <rdkit.Chem.rdchem.Mol object at 0x7fdd148643c0>, <rdkit.Chem.rdchem.Mol object at 0x7fdd14865380>, <rdkit.Chem.rdchem.Mol object at 0x7fdd14867530>]","[<rdkit.Chem.rdchem.Mol object at 0x7fdd14867060>, <rdkit.Chem.rdchem.Mol object at 0x7fdd14866b20>, <rdkit.Chem.rdchem.Mol object at 0x7fdd14866650>, <rdkit.Chem.rdchem.Mol object at 0x7fdd148667a0>, <rdkit.Chem.rdchem.Mol object at 0x7fdd148644a0>, '.', <rdkit.Chem.rdchem.Mol object at 0x7fdd14866b90>, <rdkit.Chem.rdchem.Mol object at 0x7fdd148647b0>, <rdkit.Chem.rdchem.Mol object at 0x7fdd14866f10>, <rdkit.Chem.rdchem.Mol object at 0x7fdd14864350>, <rdkit.Chem.rdchem.Mol object at 0x7fdd148643c0>, <rdkit.Chem.rdchem.Mol object at 0x7fdd14865380>, <rdkit.Chem.rdchem.Mol object at 0x7fdd14867530>]","[0, 0, 0, 0, 1501, 1502, 1503, 1504, 1505, 1, 1506, 1507, 1508, 1509, 1510, 1511, 1512]"
PBDB-T,IT-O3,-5.297714285714285,-3.4170000000000003,-5.36,-3.31,1.0,CB,_,130.0,PEDOT:PSS,PFN-Br,4.9,4.94,0.98,51.4,"[<rdkit.Chem.rdchem.Mol object at 0x7fdd14866dc0>, <rdkit.Chem.rdchem.Mol object at 0x7fdd14865fc0>, <rdkit.Chem.rdchem.Mol object at 0x7fdd14866810>, <rdkit.Chem.rdchem.Mol object at 0x7fdd14864c80>, <rdkit.Chem.rdchem.Mol object at 0x7fdd14865150>]","[<rdkit.Chem.rdchem.Mol object at 0x7fdd1485ad50>, <rdkit.Chem.rdchem.Mol object at 0x7fdd14864f20>, <rdkit.Chem.rdchem.Mol object at 0x7fdd14865a10>, <rdkit.Chem.rdchem.Mol object at 0x7fdd1485bca0>, <rdkit.Chem.rdchem.Mol object at 0x7fdd148651c0>, <rdkit.Chem.rdchem.Mol object at 0x7fdd14864890>, <rdkit.Chem.rdchem.Mol object at 0x7fdd14867840>]","[<rdkit.Chem.rdchem.Mol object at 0x7fdd14866dc0>, <rdkit.Chem.rdchem.Mol object at 0x7fdd14865fc0>, <rdkit.Chem.rdchem.Mol object at 0x7fdd14866810>, <rdkit.Chem.rdchem.Mol object at 0x7fdd14864c80>, <rdkit.Chem.rdchem.Mol object at 0x7fdd14865150>, '.', <rdkit.Chem.rdchem.Mol object at 0x7fdd1485ad50>, <rdkit.Chem.rdchem.Mol object at 0x7fdd14864f20>, <rdkit.Chem.rdchem.Mol object at 0x7fdd14865a10>, <rdkit.Chem.rdchem.Mol object at 0x7fdd1485bca0>, <rdkit.Chem.rdchem.Mol object at 0x7fdd148651c0>, <rdkit.Chem.rdchem.Mol object at 0x7fdd14864890>, <rdkit.Chem.rdchem.Mol object at 0x7fdd14867840>]","[0, 0, 0, 0, 1513, 1514, 1515, 1516, 1517, 1, 1518, 1519, 1520, 1521, 1522, 1523, 1524]"
PBDB-T,IT-O4,-5.297714285714285,-3.4170000000000003,-5.35,-3.3,1.0,CB,_,130.0,PEDOT:PSS,PFN-Br,4.2,4.17,0.95,47.9,"[<rdkit.Chem.rdchem.Mol object at 0x7fdd14859230>, <rdkit.Chem.rdchem.Mol object at 0x7fdd148645f0>, <rdkit.Chem.rdchem.Mol object at 0x7fdd14864660>, <rdkit.Chem.rdchem.Mol object at 0x7fdd148677d0>, <rdkit.Chem.rdchem.Mol object at 0x7fdd14884c10>]","[<rdkit.Chem.rdchem.Mol object at 0x7fdd14867300>, <rdkit.Chem.rdchem.Mol object at 0x7fdd14867220>, <rdkit.Chem.rdchem.Mol object at 0x7fdd14865af0>, <rdkit.Chem.rdchem.Mol object at 0x7fdd14864510>, <rdkit.Chem.rdchem.Mol object at 0x7fdd14866420>, <rdkit.Chem.rdchem.Mol object at 0x7fdd14866ff0>, <rdkit.Chem.rdchem.Mol object at 0x7fdd148659a0>]","[<rdkit.Chem.rdchem.Mol object at 0x7fdd14859230>, <rdkit.Chem.rdchem.Mol object at 0x7fdd148645f0>, <rdkit.Chem.rdchem.Mol object at 0x7fdd14864660>, <rdkit.Chem.rdchem.Mol object at 0x7fdd148677d0>, <rdkit.Chem.rdchem.Mol object at 0x7fdd14884c10>, '.', <rdkit.Chem.rdchem.Mol object at 0x7fdd14867300>, <rdkit.Chem.rdchem.Mol object at 0x7fdd14867220>, <rdkit.Chem.rdchem.Mol object at 0x7fdd14865af0>, <rdkit.Chem.rdchem.Mol object at 0x7fdd14864510>, <rdkit.Chem.rdchem.Mol object at 0x7fdd14866420>, <rdkit.Chem.rdchem.Mol object at 0x7fdd14866ff0>, <rdkit.Chem.rdchem.Mol object at 0x7fdd148659a0>]","[0, 0, 0, 0, 1525, 1526, 1527, 1528, 1529, 1, 1530, 1531, 1532, 1533, 1534, 1535, 1536]"
PTPDBDT,ITIC,-5.6,-3.75,-5.574146341463415,-3.915,1.0,CF:n-hexane (9:1),_,25.0,PEDOT:PSS,MoOx,6.4,6.39,1.04,58.0,"[<rdkit.Chem.rdchem.Mol object at 0x7fdd1485ace0>, <rdkit.Chem.rdchem.Mol object at 0x7fdd148674c0>, <rdkit.Chem.rdchem.Mol object at 0x7fdd14867d10>, <rdkit.Chem.rdchem.Mol object at 0x7fdd14865c40>, <rdkit.Chem.rdchem.Mol object at 0x7fdd14864120>]","[<rdkit.Chem.rdchem.Mol object at 0x7fdd14866c00>, <rdkit.Chem.rdchem.Mol object at 0x7fdd14865b60>, <rdkit.Chem.rdchem.Mol object at 0x7fdd14867a00>, <rdkit.Chem.rdchem.Mol object at 0x7fdd14867290>, <rdkit.Chem.rdchem.Mol object at 0x7fdd14865930>]","[<rdkit.Chem.rdchem.Mol object at 0x7fdd1485ace0>, <rdkit.Chem.rdchem.Mol object at 0x7fdd148674c0>, <rdkit.Chem.rdchem.Mol object at 0x7fdd14867d10>, <rdkit.Chem.rdchem.Mol object at 0x7fdd14865c40>, <rdkit.Chem.rdchem.Mol object at 0x7fdd14864120>, '.', <rdkit.Chem.rdchem.Mol object at 0x7fdd14866c00>, <rdkit.Chem.rdchem.Mol object at 0x7fdd14865b60>, <rdkit.Chem.rdchem.Mol object at 0x7fdd14867a00>, <rdkit.Chem.rdchem.Mol object at 0x7fdd14867290>, <rdkit.Chem.rdchem.Mol object at 0x7fdd14865930>]","[0, 0, 0, 0, 0, 0, 1537, 1538, 1539, 1540, 1541, 1, 1542, 1543, 1544, 1545, 1546]"
PTPDBDT,F-ITIC,-5.6,-3.75,-5.65,-4.09,1.0,CF:n-hexane (9:1),_,150.0,PEDOT:PSS,MoOx,8.8,8.75,0.94,66.0,"[<rdkit.Chem.rdchem.Mol object at 0x7fdd14867e60>, <rdkit.Chem.rdchem.Mol object at 0x7fdd148673e0>, <rdkit.Chem.rdchem.Mol object at 0x7fdd14865310>, <rdkit.Chem.rdchem.Mol object at 0x7fdd14864c10>, <rdkit.Chem.rdchem.Mol object at 0x7fdd14884900>]","[<rdkit.Chem.rdchem.Mol object at 0x7fdd148649e0>, <rdkit.Chem.rdchem.Mol object at 0x7fdd148650e0>, <rdkit.Chem.rdchem.Mol object at 0x7fdd14864e40>, <rdkit.Chem.rdchem.Mol object at 0x7fdd148663b0>, <rdkit.Chem.rdchem.Mol object at 0x7fdd14884820>]","[<rdkit.Chem.rdchem.Mol object at 0x7fdd14867e60>, <rdkit.Chem.rdchem.Mol object at 0x7fdd148673e0>, <rdkit.Chem.rdchem.Mol object at 0x7fdd14865310>, <rdkit.Chem.rdchem.Mol object at 0x7fdd14864c10>, <rdkit.Chem.rdchem.Mol object at 0x7fdd14884900>, '.', <rdkit.Chem.rdchem.Mol object at 0x7fdd148649e0>, <rdkit.Chem.rdchem.Mol object at 0x7fdd148650e0>, <rdkit.Chem.rdchem.Mol object at 0x7fdd14864e40>, <rdkit.Chem.rdchem.Mol object at 0x7fdd148663b0>, <rdkit.Chem.rdchem.Mol object at 0x7fdd14884820>]","[0, 0, 0, 0, 0, 0, 1547, 1548, 1549, 1550, 1551, 1, 1552, 1553, 1554, 1555, 1556]"
PTPDBDT,Cl-ITIC,-5.6,-3.75,-5.7,-4.14,1.0,CF:n-hexane (9:1),_,150.0,PEDOT:PSS,MoOx,9.5,9.53,0.94,65.0,"[<rdkit.Chem.rdchem.Mol object at 0x7fdd14864d60>, <rdkit.Chem.rdchem.Mol object at 0x7fdd148655b0>, <rdkit.Chem.rdchem.Mol object at 0x7fdd14864eb0>, <rdkit.Chem.rdchem.Mol object at 0x7fdd14865bd0>, <rdkit.Chem.rdchem.Mol object at 0x7fdd14884a50>]","[<rdkit.Chem.rdchem.Mol object at 0x7fdd14865770>, <rdkit.Chem.rdchem.Mol object at 0x7fdd14884660>, <rdkit.Chem.rdchem.Mol object at 0x7fdd14865540>, <rdkit.Chem.rdchem.Mol object at 0x7fdd14867450>, <rdkit.Chem.rdchem.Mol object at 0x7fdd14884200>]","[<rdkit.Chem.rdchem.Mol object at 0x7fdd14864d60>, <rdkit.Chem.rdchem.Mol object at 0x7fdd148655b0>, <rdkit.Chem.rdchem.Mol object at 0x7fdd14864eb0>, <rdkit.Chem.rdchem.Mol object at 0x7fdd14865bd0>, <rdkit.Chem.rdchem.Mol object at 0x7fdd14884a50>, '.', <rdkit.Chem.rdchem.Mol object at 0x7fdd14865770>, <rdkit.Chem.rdchem.Mol object at 0x7fdd14884660>, <rdkit.Chem.rdchem.Mol object at 0x7fdd14865540>, <rdkit.Chem.rdchem.Mol object at 0x7fdd14867450>, <rdkit.Chem.rdchem.Mol object at 0x7fdd14884200>]","[0, 0, 0, 0, 0, 0, 1557, 1558, 1559, 1560, 1561, 1, 1562, 1563, 1564, 1565, 1566]"
PTPDBDT,Br-ITIC,-5.6,-3.75,-5.73,-4.2,1.0,CF:n-hexane (9:1),_,150.0,PEDOT:PSS,MoOx,9.4,9.45,0.93,66.0,"[<rdkit.Chem.rdchem.Mol object at 0x7fdd148666c0>, <rdkit.Chem.rdchem.Mol object at 0x7fdd14867c30>, <rdkit.Chem.rdchem.Mol object at 0x7fdd14884430>, <rdkit.Chem.rdchem.Mol object at 0x7fdd14884c80>, <rdkit.Chem.rdchem.Mol object at 0x7fdd14884190>]","[<rdkit.Chem.rdchem.Mol object at 0x7fdd14864dd0>, <rdkit.Chem.rdchem.Mol object at 0x7fdd148844a0>, <rdkit.Chem.rdchem.Mol object at 0x7fdd14865cb0>, <rdkit.Chem.rdchem.Mol object at 0x7fdd14884350>, <rdkit.Chem.rdchem.Mol object at 0x7fdd14884dd0>]","[<rdkit.Chem.rdchem.Mol object at 0x7fdd148666c0>, <rdkit.Chem.rdchem.Mol object at 0x7fdd14867c30>, <rdkit.Chem.rdchem.Mol object at 0x7fdd14884430>, <rdkit.Chem.rdchem.Mol object at 0x7fdd14884c80>, <rdkit.Chem.rdchem.Mol object at 0x7fdd14884190>, '.', <rdkit.Chem.rdchem.Mol object at 0x7fdd14864dd0>, <rdkit.Chem.rdchem.Mol object at 0x7fdd148844a0>, <rdkit.Chem.rdchem.Mol object at 0x7fdd14865cb0>, <rdkit.Chem.rdchem.Mol object at 0x7fdd14884350>, <rdkit.Chem.rdchem.Mol object at 0x7fdd14884dd0>]","[0, 0, 0, 0, 0, 0, 1567, 1568, 1569, 1570, 1571, 1, 1572, 1573, 1574, 1575, 1576]"
PTPDBDT,I-ITIC,-5.6,-3.75,-5.68,-4.14,1.0,CF:n-hexane (9:1),_,150.0,PEDOT:PSS,MoOx,8.9,8.77,0.93,65.0,"[<rdkit.Chem.rdchem.Mol object at 0x7fdd14867ae0>, <rdkit.Chem.rdchem.Mol object at 0x7fdd14865000>, <rdkit.Chem.rdchem.Mol object at 0x7fdd148842e0>, <rdkit.Chem.rdchem.Mol object at 0x7fdd14884580>, <rdkit.Chem.rdchem.Mol object at 0x7fdd14884740>]","[<rdkit.Chem.rdchem.Mol object at 0x7fdd14884890>, <rdkit.Chem.rdchem.Mol object at 0x7fdd14884eb0>, <rdkit.Chem.rdchem.Mol object at 0x7fdd14885000>, <rdkit.Chem.rdchem.Mol object at 0x7fdd14884270>, <rdkit.Chem.rdchem.Mol object at 0x7fdd148851c0>]","[<rdkit.Chem.rdchem.Mol object at 0x7fdd14867ae0>, <rdkit.Chem.rdchem.Mol object at 0x7fdd14865000>, <rdkit.Chem.rdchem.Mol object at 0x7fdd148842e0>, <rdkit.Chem.rdchem.Mol object at 0x7fdd14884580>, <rdkit.Chem.rdchem.Mol object at 0x7fdd14884740>, '.', <rdkit.Chem.rdchem.Mol object at 0x7fdd14884890>, <rdkit.Chem.rdchem.Mol object at 0x7fdd14884eb0>, <rdkit.Chem.rdchem.Mol object at 0x7fdd14885000>, <rdkit.Chem.rdchem.Mol object at 0x7fdd14884270>, <rdkit.Chem.rdchem.Mol object at 0x7fdd148851c0>]","[0, 0, 0, 0, 0, 0, 1577, 1578, 1579, 1580, 1581, 1, 1582, 1583, 1584, 1585, 1586]"
PBDB-T,NFBDT,-5.297714285714285,-3.4170000000000003,-5.400000000000001,-3.83,1.25,CF,_,25.0,PEDOT:PSS,PDIN,10.15,9.93,0.863,66.3,"[<rdkit.Chem.rdchem.Mol object at 0x7fdd148669d0>, <rdkit.Chem.rdchem.Mol object at 0x7fdd148840b0>, <rdkit.Chem.rdchem.Mol object at 0x7fdd14884120>, <rdkit.Chem.rdchem.Mol object at 0x7fdd148854d0>, <rdkit.Chem.rdchem.Mol object at 0x7fdd14885f50>]","[<rdkit.Chem.rdchem.Mol object at 0x7fdd14886260>, <rdkit.Chem.rdchem.Mol object at 0x7fdd148843c0>, <rdkit.Chem.rdchem.Mol object at 0x7fdd14885690>, <rdkit.Chem.rdchem.Mol object at 0x7fdd14885770>, <rdkit.Chem.rdchem.Mol object at 0x7fdd148846d0>]","[<rdkit.Chem.rdchem.Mol object at 0x7fdd148669d0>, <rdkit.Chem.rdchem.Mol object at 0x7fdd148840b0>, <rdkit.Chem.rdchem.Mol object at 0x7fdd14884120>, <rdkit.Chem.rdchem.Mol object at 0x7fdd148854d0>, <rdkit.Chem.rdchem.Mol object at 0x7fdd14885f50>, '.', <rdkit.Chem.rdchem.Mol object at 0x7fdd14886260>, <rdkit.Chem.rdchem.Mol object at 0x7fdd148843c0>, <rdkit.Chem.rdchem.Mol object at 0x7fdd14885690>, <rdkit.Chem.rdchem.Mol object at 0x7fdd14885770>, <rdkit.Chem.rdchem.Mol object at 0x7fdd148846d0>]","[0, 0, 0, 0, 0, 0, 1587, 1588, 1589, 1590, 1591, 1, 1592, 1593, 1594, 1595, 1596]"
PBDB-T,NCBDT,-5.297714285714285,-3.4170000000000003,-5.36,-3.89,1.25,CF,_,25.0,PEDOT:PSS,PDINO,11.62,11.57,0.835,70.2,"[<rdkit.Chem.rdchem.Mol object at 0x7fdd148642e0>, <rdkit.Chem.rdchem.Mol object at 0x7fdd14885850>, <rdkit.Chem.rdchem.Mol object at 0x7fdd14885a80>, <rdkit.Chem.rdchem.Mol object at 0x7fdd148853f0>, <rdkit.Chem.rdchem.Mol object at 0x7fdd14886420>]","[<rdkit.Chem.rdchem.Mol object at 0x7fdd14886650>, <rdkit.Chem.rdchem.Mol object at 0x7fdd148850e0>, <rdkit.Chem.rdchem.Mol object at 0x7fdd148859a0>, <rdkit.Chem.rdchem.Mol object at 0x7fdd14884e40>, <rdkit.Chem.rdchem.Mol object at 0x7fdd14885d20>, <rdkit.Chem.rdchem.Mol object at 0x7fdd14886ce0>]","[<rdkit.Chem.rdchem.Mol object at 0x7fdd148642e0>, <rdkit.Chem.rdchem.Mol object at 0x7fdd14885850>, <rdkit.Chem.rdchem.Mol object at 0x7fdd14885a80>, <rdkit.Chem.rdchem.Mol object at 0x7fdd148853f0>, <rdkit.Chem.rdchem.Mol object at 0x7fdd14886420>, '.', <rdkit.Chem.rdchem.Mol object at 0x7fdd14886650>, <rdkit.Chem.rdchem.Mol object at 0x7fdd148850e0>, <rdkit.Chem.rdchem.Mol object at 0x7fdd148859a0>, <rdkit.Chem.rdchem.Mol object at 0x7fdd14884e40>, <rdkit.Chem.rdchem.Mol object at 0x7fdd14885d20>, <rdkit.Chem.rdchem.Mol object at 0x7fdd14886ce0>]","[0, 0, 0, 0, 0, 1597, 1598, 1599, 1600, 1601, 1, 1602, 1603, 1604, 1605, 1606, 1607]"
PBDB-T,NFBDT,-5.297714285714285,-3.4170000000000003,-5.400000000000001,-3.83,1.25,CF,_,25.0,PEDOT:PSS,PDINO,10.42,10.41,0.868,67.2,"[<rdkit.Chem.rdchem.Mol object at 0x7fdd148875a0>, <rdkit.Chem.rdchem.Mol object at 0x7fdd148869d0>, <rdkit.Chem.rdchem.Mol object at 0x7fdd14886f10>, <rdkit.Chem.rdchem.Mol object at 0x7fdd14885bd0>, <rdkit.Chem.rdchem.Mol object at 0x7fdd148845f0>]","[<rdkit.Chem.rdchem.Mol object at 0x7fdd148847b0>, <rdkit.Chem.rdchem.Mol object at 0x7fdd14886a40>, <rdkit.Chem.rdchem.Mol object at 0x7fdd14886dc0>, <rdkit.Chem.rdchem.Mol object at 0x7fdd14886b20>, <rdkit.Chem.rdchem.Mol object at 0x7fdd148870d0>]","[<rdkit.Chem.rdchem.Mol object at 0x7fdd148875a0>, <rdkit.Chem.rdchem.Mol object at 0x7fdd148869d0>, <rdkit.Chem.rdchem.Mol object at 0x7fdd14886f10>, <rdkit.Chem.rdchem.Mol object at 0x7fdd14885bd0>, <rdkit.Chem.rdchem.Mol object at 0x7fdd148845f0>, '.', <rdkit.Chem.rdchem.Mol object at 0x7fdd148847b0>, <rdkit.Chem.rdchem.Mol object at 0x7fdd14886a40>, <rdkit.Chem.rdchem.Mol object at 0x7fdd14886dc0>, <rdkit.Chem.rdchem.Mol object at 0x7fdd14886b20>, <rdkit.Chem.rdchem.Mol object at 0x7fdd148870d0>]","[0, 0, 0, 0, 0, 0, 1608, 1609, 1610, 1611, 1612, 1, 1613, 1614, 1615, 1616, 1617]"
J71,ZITI-4F,-5.353333333333333,-3.4318181818181825,-5.66,-3.81,1.0,CF,_,120.0,PEDOT:PSS,PNDIT-F3N,13.18,13.17,0.85,72.76,"[<rdkit.Chem.rdchem.Mol object at 0x7fdd14887610>, <rdkit.Chem.rdchem.Mol object at 0x7fdd14885ee0>, <rdkit.Chem.rdchem.Mol object at 0x7fdd14887840>, <rdkit.Chem.rdchem.Mol object at 0x7fdd14887290>, <rdkit.Chem.rdchem.Mol object at 0x7fdd14886c70>, <rdkit.Chem.rdchem.Mol object at 0x7fdd148873e0>]","[<rdkit.Chem.rdchem.Mol object at 0x7fdd14885930>, <rdkit.Chem.rdchem.Mol object at 0x7fdd14886d50>, <rdkit.Chem.rdchem.Mol object at 0x7fdd14884ac0>, <rdkit.Chem.rdchem.Mol object at 0x7fdd14887300>, <rdkit.Chem.rdchem.Mol object at 0x7fdd14885cb0>]","[<rdkit.Chem.rdchem.Mol object at 0x7fdd14887610>, <rdkit.Chem.rdchem.Mol object at 0x7fdd14885ee0>, <rdkit.Chem.rdchem.Mol object at 0x7fdd14887840>, <rdkit.Chem.rdchem.Mol object at 0x7fdd14887290>, <rdkit.Chem.rdchem.Mol object at 0x7fdd14886c70>, <rdkit.Chem.rdchem.Mol object at 0x7fdd148873e0>, '.', <rdkit.Chem.rdchem.Mol object at 0x7fdd14885930>, <rdkit.Chem.rdchem.Mol object at 0x7fdd14886d50>, <rdkit.Chem.rdchem.Mol object at 0x7fdd14884ac0>, <rdkit.Chem.rdchem.Mol object at 0x7fdd14887300>, <rdkit.Chem.rdchem.Mol object at 0x7fdd14885cb0>]","[0, 0, 0, 0, 0, 1618, 1619, 1620, 1621, 1622, 1623, 1, 1624, 1625, 1626, 1627, 1628]"
J71,ZITI,-5.353333333333333,-3.4318181818181825,-5.550000000000001,-3.78,1.0,CF,_,120.0,PEDOT:PSS,PNDIT-F3N,13.04,12.91,0.93,68.61,"[<rdkit.Chem.rdchem.Mol object at 0x7fdd14886ab0>, <rdkit.Chem.rdchem.Mol object at 0x7fdd14885e70>, <rdkit.Chem.rdchem.Mol object at 0x7fdd14886c00>, <rdkit.Chem.rdchem.Mol object at 0x7fdd148865e0>, <rdkit.Chem.rdchem.Mol object at 0x7fdd14886180>, <rdkit.Chem.rdchem.Mol object at 0x7fdd148863b0>]","[<rdkit.Chem.rdchem.Mol object at 0x7fdd14884ba0>, <rdkit.Chem.rdchem.Mol object at 0x7fdd148876f0>, <rdkit.Chem.rdchem.Mol object at 0x7fdd148871b0>, <rdkit.Chem.rdchem.Mol object at 0x7fdd14887140>]","[<rdkit.Chem.rdchem.Mol object at 0x7fdd14886ab0>, <rdkit.Chem.rdchem.Mol object at 0x7fdd14885e70>, <rdkit.Chem.rdchem.Mol object at 0x7fdd14886c00>, <rdkit.Chem.rdchem.Mol object at 0x7fdd148865e0>, <rdkit.Chem.rdchem.Mol object at 0x7fdd14886180>, <rdkit.Chem.rdchem.Mol object at 0x7fdd148863b0>, '.', <rdkit.Chem.rdchem.Mol object at 0x7fdd14884ba0>, <rdkit.Chem.rdchem.Mol object at 0x7fdd148876f0>, <rdkit.Chem.rdchem.Mol object at 0x7fdd148871b0>, <rdkit.Chem.rdchem.Mol object at 0x7fdd14887140>]","[0, 0, 0, 0, 0, 0, 1629, 1630, 1631, 1632, 1633, 1634, 1, 1635, 1636, 1637, 1638]"