Donor,Acceptor,HOMO_D_eV,LUMO_D_eV,HOMO_A_eV,LUMO_A_eV,D_A_ratio_m_m,solvent,solvent_additive,annealing_temperature,hole_contact_layer,electron_contact_layer,PCE_percent,calc_PCE_percent,Voc_V,FF_percent,Donor_BRICS,Acceptor_BRICS,DA_pair_BRICS,DA_tokenized_BRICS
PTB7-Th,T3,-5.204782608695651,-3.5391891891891896,-5.31,-4.0,0.556,CB,_,25.0,MoOx,ZnO,9.43,9.39,0.61,70.0,"[<rdkit.Chem.rdchem.Mol object at 0x7fdd148cf300>, <rdkit.Chem.rdchem.Mol object at 0x7fdd148cf370>, <rdkit.Chem.rdchem.Mol object at 0x7fdd148ce9d0>, <rdkit.Chem.rdchem.Mol object at 0x7fdd148cf1b0>, <rdkit.Chem.rdchem.Mol object at 0x7fdd148cd380>, <rdkit.Chem.rdchem.Mol object at 0x7fdd148ce8f0>, <rdkit.Chem.rdchem.Mol object at 0x7fdd148ce810>]","[<rdkit.Chem.rdchem.Mol object at 0x7fdd148ce7a0>, <rdkit.Chem.rdchem.Mol object at 0x7fdd148cdb60>, <rdkit.Chem.rdchem.Mol object at 0x7fdd148ce5e0>, <rdkit.Chem.rdchem.Mol object at 0x7fdd148ccc10>, <rdkit.Chem.rdchem.Mol object at 0x7fdd148ce260>, <rdkit.Chem.rdchem.Mol object at 0x7fdd148ce650>, <rdkit.Chem.rdchem.Mol object at 0x7fdd148cd850>, <rdkit.Chem.rdchem.Mol object at 0x7fdd148cf840>, <rdkit.Chem.rdchem.Mol object at 0x7fdd148cf4c0>]","[<rdkit.Chem.rdchem.Mol object at 0x7fdd148cf300>, <rdkit.Chem.rdchem.Mol object at 0x7fdd148cf370>, <rdkit.Chem.rdchem.Mol object at 0x7fdd148ce9d0>, <rdkit.Chem.rdchem.Mol object at 0x7fdd148cf1b0>, <rdkit.Chem.rdchem.Mol object at 0x7fdd148cd380>, <rdkit.Chem.rdchem.Mol object at 0x7fdd148ce8f0>, <rdkit.Chem.rdchem.Mol object at 0x7fdd148ce810>, '.', <rdkit.Chem.rdchem.Mol object at 0x7fdd148ce7a0>, <rdkit.Chem.rdchem.Mol object at 0x7fdd148cdb60>, <rdkit.Chem.rdchem.Mol object at 0x7fdd148ce5e0>, <rdkit.Chem.rdchem.Mol object at 0x7fdd148ccc10>, <rdkit.Chem.rdchem.Mol object at 0x7fdd148ce260>, <rdkit.Chem.rdchem.Mol object at 0x7fdd148ce650>, <rdkit.Chem.rdchem.Mol object at 0x7fdd148cd850>, <rdkit.Chem.rdchem.Mol object at 0x7fdd148cf840>, <rdkit.Chem.rdchem.Mol object at 0x7fdd148cf4c0>]","[2622, 2623, 2624, 2625, 2626, 2627, 2628, 1, 2629, 2630, 2631, 2632, 2633, 2634, 2635, 2636, 2637]"
PTB7-Th,ATT-1,-5.204782608695651,-3.5391891891891896,-5.5,-3.63,0.667,o-DCB,DIO,25.0,PEDOT:PSS,PFN-Br,10.07,10.04,0.87,70.0,"[<rdkit.Chem.rdchem.Mol object at 0x7fdd148cfa00>, <rdkit.Chem.rdchem.Mol object at 0x7fdd148cfa70>, <rdkit.Chem.rdchem.Mol object at 0x7fdd148cf0d0>, <rdkit.Chem.rdchem.Mol object at 0x7fdd148cf8b0>, <rdkit.Chem.rdchem.Mol object at 0x7fdd148ce180>, <rdkit.Chem.rdchem.Mol object at 0x7fdd148ceff0>, <rdkit.Chem.rdchem.Mol object at 0x7fdd148cef10>]","[<rdkit.Chem.rdchem.Mol object at 0x7fdd148ceea0>, <rdkit.Chem.rdchem.Mol object at 0x7fdd148ce490>, <rdkit.Chem.rdchem.Mol object at 0x7fdd148cece0>, <rdkit.Chem.rdchem.Mol object at 0x7fdd148cf450>, <rdkit.Chem.rdchem.Mol object at 0x7fdd148ce960>, <rdkit.Chem.rdchem.Mol object at 0x7fdd148cd150>, <rdkit.Chem.rdchem.Mol object at 0x7fdd148cfbc0>]","[<rdkit.Chem.rdchem.Mol object at 0x7fdd148cfa00>, <rdkit.Chem.rdchem.Mol object at 0x7fdd148cfa70>, <rdkit.Chem.rdchem.Mol object at 0x7fdd148cf0d0>, <rdkit.Chem.rdchem.Mol object at 0x7fdd148cf8b0>, <rdkit.Chem.rdchem.Mol object at 0x7fdd148ce180>, <rdkit.Chem.rdchem.Mol object at 0x7fdd148ceff0>, <rdkit.Chem.rdchem.Mol object at 0x7fdd148cef10>, '.', <rdkit.Chem.rdchem.Mol object at 0x7fdd148ceea0>, <rdkit.Chem.rdchem.Mol object at 0x7fdd148ce490>, <rdkit.Chem.rdchem.Mol object at 0x7fdd148cece0>, <rdkit.Chem.rdchem.Mol object at 0x7fdd148cf450>, <rdkit.Chem.rdchem.Mol object at 0x7fdd148ce960>, <rdkit.Chem.rdchem.Mol object at 0x7fdd148cd150>, <rdkit.Chem.rdchem.Mol object at 0x7fdd148cfbc0>]","[0, 0, 2638, 2639, 2640, 2641, 2642, 2643, 2644, 1, 2645, 2646, 2647, 2648, 2649, 2650, 2651]"
PDBT-T1,IC-C6IDT-IC,-5.36,-3.43,-5.69,-3.91,1.0,CF,_,25.0,MoOx,ZnO,8.71,8.71,0.89,65.0,"[<rdkit.Chem.rdchem.Mol object at 0x7fdd148c6ce0>, <rdkit.Chem.rdchem.Mol object at 0x7fdd148cfd10>, <rdkit.Chem.rdchem.Mol object at 0x7fdd148cf680>, <rdkit.Chem.rdchem.Mol object at 0x7fdd148cf610>, <rdkit.Chem.rdchem.Mol object at 0x7fdd148cfdf0>, <rdkit.Chem.rdchem.Mol object at 0x7fdd148b0270>]","[<rdkit.Chem.rdchem.Mol object at 0x7fdd148cef80>, <rdkit.Chem.rdchem.Mol object at 0x7fdd148ced50>, <rdkit.Chem.rdchem.Mol object at 0x7fdd148cee30>, <rdkit.Chem.rdchem.Mol object at 0x7fdd148cf290>]","[<rdkit.Chem.rdchem.Mol object at 0x7fdd148c6ce0>, <rdkit.Chem.rdchem.Mol object at 0x7fdd148cfd10>, <rdkit.Chem.rdchem.Mol object at 0x7fdd148cf680>, <rdkit.Chem.rdchem.Mol object at 0x7fdd148cf610>, <rdkit.Chem.rdchem.Mol object at 0x7fdd148cfdf0>, <rdkit.Chem.rdchem.Mol object at 0x7fdd148b0270>, '.', <rdkit.Chem.rdchem.Mol object at 0x7fdd148cef80>, <rdkit.Chem.rdchem.Mol object at 0x7fdd148ced50>, <rdkit.Chem.rdchem.Mol object at 0x7fdd148cee30>, <rdkit.Chem.rdchem.Mol object at 0x7fdd148cf290>]","[0, 0, 0, 0, 0, 0, 2652, 2653, 2654, 2655, 2656, 2657, 1, 2658, 2659, 2660, 2661]"
PBDTT-6ttTPD,ITIC,-5.36,-3.51,-5.574146341463415,-3.915,1.0,CF,DIO,25.0,MoOx,ZnO,9.98,9.98,0.942,67.8,"[<rdkit.Chem.rdchem.Mol object at 0x7fdd148c67a0>, <rdkit.Chem.rdchem.Mol object at 0x7fdd148cf990>, <rdkit.Chem.rdchem.Mol object at 0x7fdd148cfca0>, <rdkit.Chem.rdchem.Mol object at 0x7fdd148b0200>, <rdkit.Chem.rdchem.Mol object at 0x7fdd148b03c0>, <rdkit.Chem.rdchem.Mol object at 0x7fdd148b0c80>, <rdkit.Chem.rdchem.Mol object at 0x7fdd148b0e40>, <rdkit.Chem.rdchem.Mol object at 0x7fdd148b0f20>]","[<rdkit.Chem.rdchem.Mol object at 0x7fdd148ce880>, <rdkit.Chem.rdchem.Mol object at 0x7fdd148cfb50>, <rdkit.Chem.rdchem.Mol object at 0x7fdd148cf530>, <rdkit.Chem.rdchem.Mol object at 0x7fdd148ceb20>, <rdkit.Chem.rdchem.Mol object at 0x7fdd148b1070>]","[<rdkit.Chem.rdchem.Mol object at 0x7fdd148c67a0>, <rdkit.Chem.rdchem.Mol object at 0x7fdd148cf990>, <rdkit.Chem.rdchem.Mol object at 0x7fdd148cfca0>, <rdkit.Chem.rdchem.Mol object at 0x7fdd148b0200>, <rdkit.Chem.rdchem.Mol object at 0x7fdd148b03c0>, <rdkit.Chem.rdchem.Mol object at 0x7fdd148b0c80>, <rdkit.Chem.rdchem.Mol object at 0x7fdd148b0e40>, <rdkit.Chem.rdchem.Mol object at 0x7fdd148b0f20>, '.', <rdkit.Chem.rdchem.Mol object at 0x7fdd148ce880>, <rdkit.Chem.rdchem.Mol object at 0x7fdd148cfb50>, <rdkit.Chem.rdchem.Mol object at 0x7fdd148cf530>, <rdkit.Chem.rdchem.Mol object at 0x7fdd148ceb20>, <rdkit.Chem.rdchem.Mol object at 0x7fdd148b1070>]","[0, 0, 0, 2662, 2663, 2664, 2665, 2666, 2667, 2668, 2669, 1, 2670, 2671, 2672, 2673, 2674]"
PMOT16,ITIC,-5.52,-3.66,-5.574146341463415,-3.915,1.0,CF,DIO,25.0,MoOx,ZnO,7.63,7.64,1.001,58.7,"[<rdkit.Chem.rdchem.Mol object at 0x7fdd148cf920>, <rdkit.Chem.rdchem.Mol object at 0x7fdd148cf7d0>, <rdkit.Chem.rdchem.Mol object at 0x7fdd148ceb90>, <rdkit.Chem.rdchem.Mol object at 0x7fdd148cf220>, <rdkit.Chem.rdchem.Mol object at 0x7fdd148b04a0>, <rdkit.Chem.rdchem.Mol object at 0x7fdd148b0120>, <rdkit.Chem.rdchem.Mol object at 0x7fdd148b05f0>, <rdkit.Chem.rdchem.Mol object at 0x7fdd148b1770>, <rdkit.Chem.rdchem.Mol object at 0x7fdd148b00b0>]","[<rdkit.Chem.rdchem.Mol object at 0x7fdd148cf5a0>, <rdkit.Chem.rdchem.Mol object at 0x7fdd148b1d20>, <rdkit.Chem.rdchem.Mol object at 0x7fdd148cf760>, <rdkit.Chem.rdchem.Mol object at 0x7fdd148cfd80>, <rdkit.Chem.rdchem.Mol object at 0x7fdd148b02e0>]","[<rdkit.Chem.rdchem.Mol object at 0x7fdd148cf920>, <rdkit.Chem.rdchem.Mol object at 0x7fdd148cf7d0>, <rdkit.Chem.rdchem.Mol object at 0x7fdd148ceb90>, <rdkit.Chem.rdchem.Mol object at 0x7fdd148cf220>, <rdkit.Chem.rdchem.Mol object at 0x7fdd148b04a0>, <rdkit.Chem.rdchem.Mol object at 0x7fdd148b0120>, <rdkit.Chem.rdchem.Mol object at 0x7fdd148b05f0>, <rdkit.Chem.rdchem.Mol object at 0x7fdd148b1770>, <rdkit.Chem.rdchem.Mol object at 0x7fdd148b00b0>, '.', <rdkit.Chem.rdchem.Mol object at 0x7fdd148cf5a0>, <rdkit.Chem.rdchem.Mol object at 0x7fdd148b1d20>, <rdkit.Chem.rdchem.Mol object at 0x7fdd148cf760>, <rdkit.Chem.rdchem.Mol object at 0x7fdd148cfd80>, <rdkit.Chem.rdchem.Mol object at 0x7fdd148b02e0>]","[0, 0, 2675, 2676, 2677, 2678, 2679, 2680, 2681, 2682, 2683, 1, 2684, 2685, 2686, 2687, 2688]"
PBDTT-6ttTPD,IDIC,-5.36,-3.51,-5.706,-4.002666666666667,1.0,CF,DIO,25.0,MoOx,ZnO,8.58,8.58,0.822,65.5,"[<rdkit.Chem.rdchem.Mol object at 0x7fdd148cf060>, <rdkit.Chem.rdchem.Mol object at 0x7fdd148cfe60>, <rdkit.Chem.rdchem.Mol object at 0x7fdd148cf3e0>, <rdkit.Chem.rdchem.Mol object at 0x7fdd148b0ba0>, <rdkit.Chem.rdchem.Mol object at 0x7fdd148b0f90>, <rdkit.Chem.rdchem.Mol object at 0x7fdd148b1540>, <rdkit.Chem.rdchem.Mol object at 0x7fdd148b12a0>, <rdkit.Chem.rdchem.Mol object at 0x7fdd148b1cb0>]","[<rdkit.Chem.rdchem.Mol object at 0x7fdd148ce420>, <rdkit.Chem.rdchem.Mol object at 0x7fdd148b1e70>, <rdkit.Chem.rdchem.Mol object at 0x7fdd148cdfc0>, <rdkit.Chem.rdchem.Mol object at 0x7fdd148b1fc0>]","[<rdkit.Chem.rdchem.Mol object at 0x7fdd148cf060>, <rdkit.Chem.rdchem.Mol object at 0x7fdd148cfe60>, <rdkit.Chem.rdchem.Mol object at 0x7fdd148cf3e0>, <rdkit.Chem.rdchem.Mol object at 0x7fdd148b0ba0>, <rdkit.Chem.rdchem.Mol object at 0x7fdd148b0f90>, <rdkit.Chem.rdchem.Mol object at 0x7fdd148b1540>, <rdkit.Chem.rdchem.Mol object at 0x7fdd148b12a0>, <rdkit.Chem.rdchem.Mol object at 0x7fdd148b1cb0>, '.', <rdkit.Chem.rdchem.Mol object at 0x7fdd148ce420>, <rdkit.Chem.rdchem.Mol object at 0x7fdd148b1e70>, <rdkit.Chem.rdchem.Mol object at 0x7fdd148cdfc0>, <rdkit.Chem.rdchem.Mol object at 0x7fdd148b1fc0>]","[0, 0, 0, 0, 2689, 2690, 2691, 2692, 2693, 2694, 2695, 2696, 1, 2697, 2698, 2699, 2700]"
PMOT16,IDIC,-5.52,-3.66,-5.706,-4.002666666666667,1.0,CF,DIO,25.0,MoOx,ZnO,10.04,10.04,0.925,67.3,"[<rdkit.Chem.rdchem.Mol object at 0x7fdd148cfed0>, <rdkit.Chem.rdchem.Mol object at 0x7fdd148cfae0>, <rdkit.Chem.rdchem.Mol object at 0x7fdd148ce730>, <rdkit.Chem.rdchem.Mol object at 0x7fdd148b18c0>, <rdkit.Chem.rdchem.Mol object at 0x7fdd148b0900>, <rdkit.Chem.rdchem.Mol object at 0x7fdd148b1b60>, <rdkit.Chem.rdchem.Mol object at 0x7fdd148b0580>, <rdkit.Chem.rdchem.Mol object at 0x7fdd148b2420>, <rdkit.Chem.rdchem.Mol object at 0x7fdd148b2340>]","[<rdkit.Chem.rdchem.Mol object at 0x7fdd148b2880>, <rdkit.Chem.rdchem.Mol object at 0x7fdd148b10e0>, <rdkit.Chem.rdchem.Mol object at 0x7fdd148b1af0>, <rdkit.Chem.rdchem.Mol object at 0x7fdd148b23b0>]","[<rdkit.Chem.rdchem.Mol object at 0x7fdd148cfed0>, <rdkit.Chem.rdchem.Mol object at 0x7fdd148cfae0>, <rdkit.Chem.rdchem.Mol object at 0x7fdd148ce730>, <rdkit.Chem.rdchem.Mol object at 0x7fdd148b18c0>, <rdkit.Chem.rdchem.Mol object at 0x7fdd148b0900>, <rdkit.Chem.rdchem.Mol object at 0x7fdd148b1b60>, <rdkit.Chem.rdchem.Mol object at 0x7fdd148b0580>, <rdkit.Chem.rdchem.Mol object at 0x7fdd148b2420>, <rdkit.Chem.rdchem.Mol object at 0x7fdd148b2340>, '.', <rdkit.Chem.rdchem.Mol object at 0x7fdd148b2880>, <rdkit.Chem.rdchem.Mol object at 0x7fdd148b10e0>, <rdkit.Chem.rdchem.Mol object at 0x7fdd148b1af0>, <rdkit.Chem.rdchem.Mol object at 0x7fdd148b23b0>]","[0, 0, 0, 2701, 2702, 2703, 2704, 2705, 2706, 2707, 2708, 2709, 1, 2710, 2711, 2712, 2713]"
PTZP,IDIC,-5.41,-3.4,-5.706,-4.002666666666667,0.667,CB,DIO,25.0,PEDOT:PSS,PFN-Br,11.8,11.81,0.9,73.3,"[<rdkit.Chem.rdchem.Mol object at 0x7fdd148cfc30>, <rdkit.Chem.rdchem.Mol object at 0x7fdd148b22d0>, <rdkit.Chem.rdchem.Mol object at 0x7fdd148b20a0>, <rdkit.Chem.rdchem.Mol object at 0x7fdd148b1700>, <rdkit.Chem.rdchem.Mol object at 0x7fdd148b09e0>, <rdkit.Chem.rdchem.Mol object at 0x7fdd148b14d0>, <rdkit.Chem.rdchem.Mol object at 0x7fdd148b06d0>, <rdkit.Chem.rdchem.Mol object at 0x7fdd148b1a80>]","[<rdkit.Chem.rdchem.Mol object at 0x7fdd148b0a50>, <rdkit.Chem.rdchem.Mol object at 0x7fdd148b13f0>, <rdkit.Chem.rdchem.Mol object at 0x7fdd148b0740>, <rdkit.Chem.rdchem.Mol object at 0x7fdd148b07b0>]","[<rdkit.Chem.rdchem.Mol object at 0x7fdd148cfc30>, <rdkit.Chem.rdchem.Mol object at 0x7fdd148b22d0>, <rdkit.Chem.rdchem.Mol object at 0x7fdd148b20a0>, <rdkit.Chem.rdchem.Mol object at 0x7fdd148b1700>, <rdkit.Chem.rdchem.Mol object at 0x7fdd148b09e0>, <rdkit.Chem.rdchem.Mol object at 0x7fdd148b14d0>, <rdkit.Chem.rdchem.Mol object at 0x7fdd148b06d0>, <rdkit.Chem.rdchem.Mol object at 0x7fdd148b1a80>, '.', <rdkit.Chem.rdchem.Mol object at 0x7fdd148b0a50>, <rdkit.Chem.rdchem.Mol object at 0x7fdd148b13f0>, <rdkit.Chem.rdchem.Mol object at 0x7fdd148b0740>, <rdkit.Chem.rdchem.Mol object at 0x7fdd148b07b0>]","[0, 0, 0, 0, 2714, 2715, 2716, 2717, 2718, 2719, 2720, 2721, 1, 2722, 2723, 2724, 2725]"
PffBT2T-TT,O-IDTBR,-5.42,-3.52,-5.535,-3.74,0.667,"1,2,4-trimethylbenzene",_,90.0,V2O5,ZnO,10.4,10.36,1.08,67.0,"[<rdkit.Chem.rdchem.Mol object at 0x7fdd148cf6f0>, <rdkit.Chem.rdchem.Mol object at 0x7fdd148b0350>, <rdkit.Chem.rdchem.Mol object at 0x7fdd148b21f0>, <rdkit.Chem.rdchem.Mol object at 0x7fdd148b0820>, <rdkit.Chem.rdchem.Mol object at 0x7fdd148b1c40>]","[<rdkit.Chem.rdchem.Mol object at 0x7fdd148b17e0>, <rdkit.Chem.rdchem.Mol object at 0x7fdd148b0c10>, <rdkit.Chem.rdchem.Mol object at 0x7fdd148b28f0>, <rdkit.Chem.rdchem.Mol object at 0x7fdd148b11c0>, <rdkit.Chem.rdchem.Mol object at 0x7fdd148b1310>]","[<rdkit.Chem.rdchem.Mol object at 0x7fdd148cf6f0>, <rdkit.Chem.rdchem.Mol object at 0x7fdd148b0350>, <rdkit.Chem.rdchem.Mol object at 0x7fdd148b21f0>, <rdkit.Chem.rdchem.Mol object at 0x7fdd148b0820>, <rdkit.Chem.rdchem.Mol object at 0x7fdd148b1c40>, '.', <rdkit.Chem.rdchem.Mol object at 0x7fdd148b17e0>, <rdkit.Chem.rdchem.Mol object at 0x7fdd148b0c10>, <rdkit.Chem.rdchem.Mol object at 0x7fdd148b28f0>, <rdkit.Chem.rdchem.Mol object at 0x7fdd148b11c0>, <rdkit.Chem.rdchem.Mol object at 0x7fdd148b1310>]","[0, 0, 0, 0, 0, 0, 2726, 2727, 2728, 2729, 2730, 1, 2731, 2732, 2733, 2734, 2735]"
PffBT4T-2OD,EH-IDTBR,-5.32,-3.695,-5.58,-3.9,0.667,o-xylene,_,100.0,MoOx,ZnO,9.5,9.49,1.08,60.0,"[<rdkit.Chem.rdchem.Mol object at 0x7fdd148b1a10>, <rdkit.Chem.rdchem.Mol object at 0x7fdd148b0890>, <rdkit.Chem.rdchem.Mol object at 0x7fdd148b0430>, <rdkit.Chem.rdchem.Mol object at 0x7fdd148b2570>, <rdkit.Chem.rdchem.Mol object at 0x7fdd148b2180>, <rdkit.Chem.rdchem.Mol object at 0x7fdd148b15b0>]","[<rdkit.Chem.rdchem.Mol object at 0x7fdd148b0d60>, <rdkit.Chem.rdchem.Mol object at 0x7fdd148b1230>, <rdkit.Chem.rdchem.Mol object at 0x7fdd148b27a0>, <rdkit.Chem.rdchem.Mol object at 0x7fdd148b0660>, <rdkit.Chem.rdchem.Mol object at 0x7fdd148b0cf0>]","[<rdkit.Chem.rdchem.Mol object at 0x7fdd148b1a10>, <rdkit.Chem.rdchem.Mol object at 0x7fdd148b0890>, <rdkit.Chem.rdchem.Mol object at 0x7fdd148b0430>, <rdkit.Chem.rdchem.Mol object at 0x7fdd148b2570>, <rdkit.Chem.rdchem.Mol object at 0x7fdd148b2180>, <rdkit.Chem.rdchem.Mol object at 0x7fdd148b15b0>, '.', <rdkit.Chem.rdchem.Mol object at 0x7fdd148b0d60>, <rdkit.Chem.rdchem.Mol object at 0x7fdd148b1230>, <rdkit.Chem.rdchem.Mol object at 0x7fdd148b27a0>, <rdkit.Chem.rdchem.Mol object at 0x7fdd148b0660>, <rdkit.Chem.rdchem.Mol object at 0x7fdd148b0cf0>]","[0, 0, 0, 0, 0, 2736, 2737, 2738, 2739, 2740, 2741, 1, 2742, 2743, 2744, 2745, 2746]"
PTB7-Th,IDT-BT-R,-5.204782608695651,-3.5391891891891896,-5.3,-3.56,0.667,DCB,_,150.0,PEDOT:PSS,Ca,8.2,8.2,1.02,59.1,"[<rdkit.Chem.rdchem.Mol object at 0x7fdd148b2490>, <rdkit.Chem.rdchem.Mol object at 0x7fdd148b1150>, <rdkit.Chem.rdchem.Mol object at 0x7fdd148b1000>, <rdkit.Chem.rdchem.Mol object at 0x7fdd148b1690>, <rdkit.Chem.rdchem.Mol object at 0x7fdd148b1850>, <rdkit.Chem.rdchem.Mol object at 0x7fdd148b2110>, <rdkit.Chem.rdchem.Mol object at 0x7fdd148b29d0>]","[<rdkit.Chem.rdchem.Mol object at 0x7fdd148b1bd0>, <rdkit.Chem.rdchem.Mol object at 0x7fdd148b1460>, <rdkit.Chem.rdchem.Mol object at 0x7fdd148b1620>, <rdkit.Chem.rdchem.Mol object at 0x7fdd148b0dd0>, <rdkit.Chem.rdchem.Mol object at 0x7fdd148b2c70>, <rdkit.Chem.rdchem.Mol object at 0x7fdd148b2b20>]","[<rdkit.Chem.rdchem.Mol object at 0x7fdd148b2490>, <rdkit.Chem.rdchem.Mol object at 0x7fdd148b1150>, <rdkit.Chem.rdchem.Mol object at 0x7fdd148b1000>, <rdkit.Chem.rdchem.Mol object at 0x7fdd148b1690>, <rdkit.Chem.rdchem.Mol object at 0x7fdd148b1850>, <rdkit.Chem.rdchem.Mol object at 0x7fdd148b2110>, <rdkit.Chem.rdchem.Mol object at 0x7fdd148b29d0>, '.', <rdkit.Chem.rdchem.Mol object at 0x7fdd148b1bd0>, <rdkit.Chem.rdchem.Mol object at 0x7fdd148b1460>, <rdkit.Chem.rdchem.Mol object at 0x7fdd148b1620>, <rdkit.Chem.rdchem.Mol object at 0x7fdd148b0dd0>, <rdkit.Chem.rdchem.Mol object at 0x7fdd148b2c70>, <rdkit.Chem.rdchem.Mol object at 0x7fdd148b2b20>]","[0, 0, 0, 2747, 2748, 2749, 2750, 2751, 2752, 2753, 1, 2754, 2755, 2756, 2757, 2758, 2759]"
PTB7-Th,IDT-BT-R-CN,-5.204782608695651,-3.5391891891891896,-5.38,-3.67,0.5,DCB,_,150.0,PEDOT:PSS,Ca,5.5,5.47,0.88,50.1,"[<rdkit.Chem.rdchem.Mol object at 0x7fdd148b2c00>, <rdkit.Chem.rdchem.Mol object at 0x7fdd148b2b90>, <rdkit.Chem.rdchem.Mol object at 0x7fdd148b25e0>, <rdkit.Chem.rdchem.Mol object at 0x7fdd148b2500>, <rdkit.Chem.rdchem.Mol object at 0x7fdd148b1380>, <rdkit.Chem.rdchem.Mol object at 0x7fdd148b2730>, <rdkit.Chem.rdchem.Mol object at 0x7fdd148b1930>]","[<rdkit.Chem.rdchem.Mol object at 0x7fdd148b1f50>, <rdkit.Chem.rdchem.Mol object at 0x7fdd148b1ee0>, <rdkit.Chem.rdchem.Mol object at 0x7fdd148b2ff0>]","[<rdkit.Chem.rdchem.Mol object at 0x7fdd148b2c00>, <rdkit.Chem.rdchem.Mol object at 0x7fdd148b2b90>, <rdkit.Chem.rdchem.Mol object at 0x7fdd148b25e0>, <rdkit.Chem.rdchem.Mol object at 0x7fdd148b2500>, <rdkit.Chem.rdchem.Mol object at 0x7fdd148b1380>, <rdkit.Chem.rdchem.Mol object at 0x7fdd148b2730>, <rdkit.Chem.rdchem.Mol object at 0x7fdd148b1930>, '.', <rdkit.Chem.rdchem.Mol object at 0x7fdd148b1f50>, <rdkit.Chem.rdchem.Mol object at 0x7fdd148b1ee0>, <rdkit.Chem.rdchem.Mol object at 0x7fdd148b2ff0>]","[0, 0, 0, 0, 0, 0, 2760, 2761, 2762, 2763, 2764, 2765, 2766, 1, 2767, 2768, 2769]"
P3HT,I-IDTBTRh,-5.057777777777777,-2.989444444444445,-5.42,-3.68,1.25,CF,_,140.0,PEDOT:PSS,Ca,5.38,5.38,0.86,71.0,"[<rdkit.Chem.rdchem.Mol object at 0x7fdd148b3140>, <rdkit.Chem.rdchem.Mol object at 0x7fdd148b2960>, <rdkit.Chem.rdchem.Mol object at 0x7fdd148b3610>, <rdkit.Chem.rdchem.Mol object at 0x7fdd148b2f10>]","[<rdkit.Chem.rdchem.Mol object at 0x7fdd148b37d0>, <rdkit.Chem.rdchem.Mol object at 0x7fdd148b3450>, <rdkit.Chem.rdchem.Mol object at 0x7fdd148b2dc0>, <rdkit.Chem.rdchem.Mol object at 0x7fdd148b1e00>, <rdkit.Chem.rdchem.Mol object at 0x7fdd148b31b0>, <rdkit.Chem.rdchem.Mol object at 0x7fdd148b2a40>, <rdkit.Chem.rdchem.Mol object at 0x7fdd148b1d90>]","[<rdkit.Chem.rdchem.Mol object at 0x7fdd148b3140>, <rdkit.Chem.rdchem.Mol object at 0x7fdd148b2960>, <rdkit.Chem.rdchem.Mol object at 0x7fdd148b3610>, <rdkit.Chem.rdchem.Mol object at 0x7fdd148b2f10>, '.', <rdkit.Chem.rdchem.Mol object at 0x7fdd148b37d0>, <rdkit.Chem.rdchem.Mol object at 0x7fdd148b3450>, <rdkit.Chem.rdchem.Mol object at 0x7fdd148b2dc0>, <rdkit.Chem.rdchem.Mol object at 0x7fdd148b1e00>, <rdkit.Chem.rdchem.Mol object at 0x7fdd148b31b0>, <rdkit.Chem.rdchem.Mol object at 0x7fdd148b2a40>, <rdkit.Chem.rdchem.Mol object at 0x7fdd148b1d90>]","[0, 0, 0, 0, 0, 2770, 2771, 2772, 2773, 1, 2774, 2775, 2776, 2777, 2778, 2779, 2780]"