Donor,Acceptor,HOMO_D_eV,LUMO_D_eV,HOMO_A_eV,LUMO_A_eV,D_A_ratio_m_m,solvent,solvent_additive,annealing_temperature,hole_contact_layer,electron_contact_layer,PCE_percent,calc_PCE_percent,Voc_V,FF_percent,Donor_BRICS,Acceptor_BRICS,DA_pair_BRICS,DA_tokenized_BRICS
PTB7-Th,F8IC,-5.204782608695651,-3.5391891891891896,-5.43,-4.0,0.588,CF,DPE,25.0,MoOx,ZnO,10.9,10.87,0.64,67.6,"[<rdkit.Chem.rdchem.Mol object at 0x7fdd1486f3e0>, <rdkit.Chem.rdchem.Mol object at 0x7fdd1486f1b0>, <rdkit.Chem.rdchem.Mol object at 0x7fdd1486f290>, <rdkit.Chem.rdchem.Mol object at 0x7fdd1486f220>, <rdkit.Chem.rdchem.Mol object at 0x7fdd1486dd20>, <rdkit.Chem.rdchem.Mol object at 0x7fdd1486f0d0>, <rdkit.Chem.rdchem.Mol object at 0x7fdd1486ee30>]","[<rdkit.Chem.rdchem.Mol object at 0x7fdd1486e730>, <rdkit.Chem.rdchem.Mol object at 0x7fdd1486f300>, <rdkit.Chem.rdchem.Mol object at 0x7fdd1486ec00>, <rdkit.Chem.rdchem.Mol object at 0x7fdd1486ef80>, <rdkit.Chem.rdchem.Mol object at 0x7fdd1486f5a0>]","[<rdkit.Chem.rdchem.Mol object at 0x7fdd1486f3e0>, <rdkit.Chem.rdchem.Mol object at 0x7fdd1486f1b0>, <rdkit.Chem.rdchem.Mol object at 0x7fdd1486f290>, <rdkit.Chem.rdchem.Mol object at 0x7fdd1486f220>, <rdkit.Chem.rdchem.Mol object at 0x7fdd1486dd20>, <rdkit.Chem.rdchem.Mol object at 0x7fdd1486f0d0>, <rdkit.Chem.rdchem.Mol object at 0x7fdd1486ee30>, '.', <rdkit.Chem.rdchem.Mol object at 0x7fdd1486e730>, <rdkit.Chem.rdchem.Mol object at 0x7fdd1486f300>, <rdkit.Chem.rdchem.Mol object at 0x7fdd1486ec00>, <rdkit.Chem.rdchem.Mol object at 0x7fdd1486ef80>, <rdkit.Chem.rdchem.Mol object at 0x7fdd1486f5a0>]","[0, 0, 0, 0, 1795, 1796, 1797, 1798, 1799, 1800, 1801, 1, 1802, 1803, 1804, 1805, 1806]"
PTB7-Th,F10IC,-5.204782608695651,-3.5391891891891896,-5.26,-3.96,0.588,CF,DPE,25.0,MoOx,ZnO,10.2,10.16,0.73,66.8,"[<rdkit.Chem.rdchem.Mol object at 0x7fdd1486f920>, <rdkit.Chem.rdchem.Mol object at 0x7fdd1486f6f0>, <rdkit.Chem.rdchem.Mol object at 0x7fdd1486f7d0>, <rdkit.Chem.rdchem.Mol object at 0x7fdd1486f760>, <rdkit.Chem.rdchem.Mol object at 0x7fdd1486e570>, <rdkit.Chem.rdchem.Mol object at 0x7fdd1486f610>, <rdkit.Chem.rdchem.Mol object at 0x7fdd1486f370>]","[<rdkit.Chem.rdchem.Mol object at 0x7fdd1486ef10>, <rdkit.Chem.rdchem.Mol object at 0x7fdd1486f840>, <rdkit.Chem.rdchem.Mol object at 0x7fdd1486f140>, <rdkit.Chem.rdchem.Mol object at 0x7fdd1486f4c0>, <rdkit.Chem.rdchem.Mol object at 0x7fdd1486fae0>]","[<rdkit.Chem.rdchem.Mol object at 0x7fdd1486f920>, <rdkit.Chem.rdchem.Mol object at 0x7fdd1486f6f0>, <rdkit.Chem.rdchem.Mol object at 0x7fdd1486f7d0>, <rdkit.Chem.rdchem.Mol object at 0x7fdd1486f760>, <rdkit.Chem.rdchem.Mol object at 0x7fdd1486e570>, <rdkit.Chem.rdchem.Mol object at 0x7fdd1486f610>, <rdkit.Chem.rdchem.Mol object at 0x7fdd1486f370>, '.', <rdkit.Chem.rdchem.Mol object at 0x7fdd1486ef10>, <rdkit.Chem.rdchem.Mol object at 0x7fdd1486f840>, <rdkit.Chem.rdchem.Mol object at 0x7fdd1486f140>, <rdkit.Chem.rdchem.Mol object at 0x7fdd1486f4c0>, <rdkit.Chem.rdchem.Mol object at 0x7fdd1486fae0>]","[0, 0, 0, 0, 1807, 1808, 1809, 1810, 1811, 1812, 1813, 1, 1814, 1815, 1816, 1817, 1818]"
PBDTTT-C-T,DC-IDT2T,-5.128,-3.268,-5.43,-3.85,1.2,o-DCB:CF (6.667:1),_,25.0,PEDOT:PSS,Ca,3.93,3.92,0.9,52.3,"[<rdkit.Chem.rdchem.Mol object at 0x7fdd1486fd80>, <rdkit.Chem.rdchem.Mol object at 0x7fdd1486fe60>, <rdkit.Chem.rdchem.Mol object at 0x7fdd1486f680>, <rdkit.Chem.rdchem.Mol object at 0x7fdd1486dbd0>, <rdkit.Chem.rdchem.Mol object at 0x7fdd1486ea40>]","[<rdkit.Chem.rdchem.Mol object at 0x7fdd1486eff0>, <rdkit.Chem.rdchem.Mol object at 0x7fdd1486fd10>, <rdkit.Chem.rdchem.Mol object at 0x7fdd1486fbc0>, <rdkit.Chem.rdchem.Mol object at 0x7fdd1486c040>, <rdkit.Chem.rdchem.Mol object at 0x7fdd1488c2e0>, <rdkit.Chem.rdchem.Mol object at 0x7fdd1488c200>]","[<rdkit.Chem.rdchem.Mol object at 0x7fdd1486fd80>, <rdkit.Chem.rdchem.Mol object at 0x7fdd1486fe60>, <rdkit.Chem.rdchem.Mol object at 0x7fdd1486f680>, <rdkit.Chem.rdchem.Mol object at 0x7fdd1486dbd0>, <rdkit.Chem.rdchem.Mol object at 0x7fdd1486ea40>, '.', <rdkit.Chem.rdchem.Mol object at 0x7fdd1486eff0>, <rdkit.Chem.rdchem.Mol object at 0x7fdd1486fd10>, <rdkit.Chem.rdchem.Mol object at 0x7fdd1486fbc0>, <rdkit.Chem.rdchem.Mol object at 0x7fdd1486c040>, <rdkit.Chem.rdchem.Mol object at 0x7fdd1488c2e0>, <rdkit.Chem.rdchem.Mol object at 0x7fdd1488c200>]","[0, 0, 0, 0, 0, 1819, 1820, 1821, 1822, 1823, 1, 1824, 1825, 1826, 1827, 1828, 1829]"
Pff4TBT-2DT,FBR,-5.34,-3.7,-5.786666666666666,-3.673333333333333,1.0,CB,_,25.0,MoOx,ZnO,7.8,7.86,1.12,61.0,"[<rdkit.Chem.rdchem.Mol object at 0x7fdd1486fdf0>, <rdkit.Chem.rdchem.Mol object at 0x7fdd1486d000>, <rdkit.Chem.rdchem.Mol object at 0x7fdd1486ff40>, <rdkit.Chem.rdchem.Mol object at 0x7fdd1486fca0>, <rdkit.Chem.rdchem.Mol object at 0x7fdd1486d690>, <rdkit.Chem.rdchem.Mol object at 0x7fdd1486e260>]","[<rdkit.Chem.rdchem.Mol object at 0x7fdd1486fc30>, <rdkit.Chem.rdchem.Mol object at 0x7fdd1486eab0>, <rdkit.Chem.rdchem.Mol object at 0x7fdd1486f990>, <rdkit.Chem.rdchem.Mol object at 0x7fdd1486f8b0>, <rdkit.Chem.rdchem.Mol object at 0x7fdd1486d0e0>]","[<rdkit.Chem.rdchem.Mol object at 0x7fdd1486fdf0>, <rdkit.Chem.rdchem.Mol object at 0x7fdd1486d000>, <rdkit.Chem.rdchem.Mol object at 0x7fdd1486ff40>, <rdkit.Chem.rdchem.Mol object at 0x7fdd1486fca0>, <rdkit.Chem.rdchem.Mol object at 0x7fdd1486d690>, <rdkit.Chem.rdchem.Mol object at 0x7fdd1486e260>, '.', <rdkit.Chem.rdchem.Mol object at 0x7fdd1486fc30>, <rdkit.Chem.rdchem.Mol object at 0x7fdd1486eab0>, <rdkit.Chem.rdchem.Mol object at 0x7fdd1486f990>, <rdkit.Chem.rdchem.Mol object at 0x7fdd1486f8b0>, <rdkit.Chem.rdchem.Mol object at 0x7fdd1486d0e0>]","[0, 0, 0, 0, 0, 1830, 1831, 1832, 1833, 1834, 1835, 1, 1836, 1837, 1838, 1839, 1840]"
Pff4TBT-2DT,FTTB,-5.34,-3.7,-5.65,-3.62,1.0,CB,_,25.0,MoOx,ZnO,5.0,4.87,1.05,45.0,"[<rdkit.Chem.rdchem.Mol object at 0x7fdd1486f530>, <rdkit.Chem.rdchem.Mol object at 0x7fdd1488c120>, <rdkit.Chem.rdchem.Mol object at 0x7fdd1486c6d0>, <rdkit.Chem.rdchem.Mol object at 0x7fdd1488c580>, <rdkit.Chem.rdchem.Mol object at 0x7fdd1488c430>, <rdkit.Chem.rdchem.Mol object at 0x7fdd1488c5f0>]","[<rdkit.Chem.rdchem.Mol object at 0x7fdd1486fed0>, <rdkit.Chem.rdchem.Mol object at 0x7fdd1486fa00>, <rdkit.Chem.rdchem.Mol object at 0x7fdd1488c970>, <rdkit.Chem.rdchem.Mol object at 0x7fdd1486f450>, <rdkit.Chem.rdchem.Mol object at 0x7fdd1488c4a0>]","[<rdkit.Chem.rdchem.Mol object at 0x7fdd1486f530>, <rdkit.Chem.rdchem.Mol object at 0x7fdd1488c120>, <rdkit.Chem.rdchem.Mol object at 0x7fdd1486c6d0>, <rdkit.Chem.rdchem.Mol object at 0x7fdd1488c580>, <rdkit.Chem.rdchem.Mol object at 0x7fdd1488c430>, <rdkit.Chem.rdchem.Mol object at 0x7fdd1488c5f0>, '.', <rdkit.Chem.rdchem.Mol object at 0x7fdd1486fed0>, <rdkit.Chem.rdchem.Mol object at 0x7fdd1486fa00>, <rdkit.Chem.rdchem.Mol object at 0x7fdd1488c970>, <rdkit.Chem.rdchem.Mol object at 0x7fdd1486f450>, <rdkit.Chem.rdchem.Mol object at 0x7fdd1488c4a0>]","[0, 0, 0, 0, 0, 1841, 1842, 1843, 1844, 1845, 1846, 1, 1847, 1848, 1849, 1850, 1851]"
Pff4TBT-2DT,IDFBR,-5.34,-3.7,-5.75,-3.7,1.0,CB,_,25.0,MoOx,ZnO,1.75,1.81,1.08,38.0,"[<rdkit.Chem.rdchem.Mol object at 0x7fdd1486fa70>, <rdkit.Chem.rdchem.Mol object at 0x7fdd1488c660>, <rdkit.Chem.rdchem.Mol object at 0x7fdd1488c270>, <rdkit.Chem.rdchem.Mol object at 0x7fdd1488c9e0>, <rdkit.Chem.rdchem.Mol object at 0x7fdd1488c7b0>, <rdkit.Chem.rdchem.Mol object at 0x7fdd1488ca50>]","[<rdkit.Chem.rdchem.Mol object at 0x7fdd1486e6c0>, <rdkit.Chem.rdchem.Mol object at 0x7fdd1488cc10>, <rdkit.Chem.rdchem.Mol object at 0x7fdd1488ceb0>, <rdkit.Chem.rdchem.Mol object at 0x7fdd1488cb30>, <rdkit.Chem.rdchem.Mol object at 0x7fdd1488c350>]","[<rdkit.Chem.rdchem.Mol object at 0x7fdd1486fa70>, <rdkit.Chem.rdchem.Mol object at 0x7fdd1488c660>, <rdkit.Chem.rdchem.Mol object at 0x7fdd1488c270>, <rdkit.Chem.rdchem.Mol object at 0x7fdd1488c9e0>, <rdkit.Chem.rdchem.Mol object at 0x7fdd1488c7b0>, <rdkit.Chem.rdchem.Mol object at 0x7fdd1488ca50>, '.', <rdkit.Chem.rdchem.Mol object at 0x7fdd1486e6c0>, <rdkit.Chem.rdchem.Mol object at 0x7fdd1488cc10>, <rdkit.Chem.rdchem.Mol object at 0x7fdd1488ceb0>, <rdkit.Chem.rdchem.Mol object at 0x7fdd1488cb30>, <rdkit.Chem.rdchem.Mol object at 0x7fdd1488c350>]","[0, 0, 0, 0, 0, 1852, 1853, 1854, 1855, 1856, 1857, 1, 1858, 1859, 1860, 1861, 1862]"
Pff4TBT-2DT,IDTBR,-5.34,-3.7,-5.5,-3.9,1.0,CB,_,25.0,MoOx,ZnO,9.95,9.95,1.07,62.0,"[<rdkit.Chem.rdchem.Mol object at 0x7fdd1486e7a0>, <rdkit.Chem.rdchem.Mol object at 0x7fdd1488cac0>, <rdkit.Chem.rdchem.Mol object at 0x7fdd1488c6d0>, <rdkit.Chem.rdchem.Mol object at 0x7fdd1488c820>, <rdkit.Chem.rdchem.Mol object at 0x7fdd1488cc80>, <rdkit.Chem.rdchem.Mol object at 0x7fdd1488cdd0>]","[<rdkit.Chem.rdchem.Mol object at 0x7fdd1488d310>, <rdkit.Chem.rdchem.Mol object at 0x7fdd1488c040>, <rdkit.Chem.rdchem.Mol object at 0x7fdd1488d0e0>, <rdkit.Chem.rdchem.Mol object at 0x7fdd1488c3c0>, <rdkit.Chem.rdchem.Mol object at 0x7fdd1488cba0>]","[<rdkit.Chem.rdchem.Mol object at 0x7fdd1486e7a0>, <rdkit.Chem.rdchem.Mol object at 0x7fdd1488cac0>, <rdkit.Chem.rdchem.Mol object at 0x7fdd1488c6d0>, <rdkit.Chem.rdchem.Mol object at 0x7fdd1488c820>, <rdkit.Chem.rdchem.Mol object at 0x7fdd1488cc80>, <rdkit.Chem.rdchem.Mol object at 0x7fdd1488cdd0>, '.', <rdkit.Chem.rdchem.Mol object at 0x7fdd1488d310>, <rdkit.Chem.rdchem.Mol object at 0x7fdd1488c040>, <rdkit.Chem.rdchem.Mol object at 0x7fdd1488d0e0>, <rdkit.Chem.rdchem.Mol object at 0x7fdd1488c3c0>, <rdkit.Chem.rdchem.Mol object at 0x7fdd1488cba0>]","[0, 0, 0, 0, 0, 1863, 1864, 1865, 1866, 1867, 1868, 1, 1869, 1870, 1871, 1872, 1873]"
J71,TTz1,-5.353333333333333,-3.4318181818181825,-5.59,-3.66,0.5,CF,DIO,25.0,MoOx,ZnO,8.77,8.77,0.9,63.18,"[<rdkit.Chem.rdchem.Mol object at 0x7fdd1486cdd0>, <rdkit.Chem.rdchem.Mol object at 0x7fdd1488c900>, <rdkit.Chem.rdchem.Mol object at 0x7fdd1488d070>, <rdkit.Chem.rdchem.Mol object at 0x7fdd1488d000>, <rdkit.Chem.rdchem.Mol object at 0x7fdd1488d460>, <rdkit.Chem.rdchem.Mol object at 0x7fdd1488da10>]","[<rdkit.Chem.rdchem.Mol object at 0x7fdd1486fb50>, <rdkit.Chem.rdchem.Mol object at 0x7fdd1488d620>, <rdkit.Chem.rdchem.Mol object at 0x7fdd1488d230>, <rdkit.Chem.rdchem.Mol object at 0x7fdd1488cd60>, <rdkit.Chem.rdchem.Mol object at 0x7fdd1488d540>, <rdkit.Chem.rdchem.Mol object at 0x7fdd1488c0b0>, <rdkit.Chem.rdchem.Mol object at 0x7fdd1488ccf0>]","[<rdkit.Chem.rdchem.Mol object at 0x7fdd1486cdd0>, <rdkit.Chem.rdchem.Mol object at 0x7fdd1488c900>, <rdkit.Chem.rdchem.Mol object at 0x7fdd1488d070>, <rdkit.Chem.rdchem.Mol object at 0x7fdd1488d000>, <rdkit.Chem.rdchem.Mol object at 0x7fdd1488d460>, <rdkit.Chem.rdchem.Mol object at 0x7fdd1488da10>, '.', <rdkit.Chem.rdchem.Mol object at 0x7fdd1486fb50>, <rdkit.Chem.rdchem.Mol object at 0x7fdd1488d620>, <rdkit.Chem.rdchem.Mol object at 0x7fdd1488d230>, <rdkit.Chem.rdchem.Mol object at 0x7fdd1488cd60>, <rdkit.Chem.rdchem.Mol object at 0x7fdd1488d540>, <rdkit.Chem.rdchem.Mol object at 0x7fdd1488c0b0>, <rdkit.Chem.rdchem.Mol object at 0x7fdd1488ccf0>]","[0, 0, 0, 1874, 1875, 1876, 1877, 1878, 1879, 1, 1880, 1881, 1882, 1883, 1884, 1885, 1886]"
J71,TTz2,-5.353333333333333,-3.4318181818181825,-5.45,-3.5,0.5,CF,DIO,25.0,MoOx,ZnO,6.3,6.3,0.92,53.73,"[<rdkit.Chem.rdchem.Mol object at 0x7fdd1488db60>, <rdkit.Chem.rdchem.Mol object at 0x7fdd1488c190>, <rdkit.Chem.rdchem.Mol object at 0x7fdd1488d5b0>, <rdkit.Chem.rdchem.Mol object at 0x7fdd1488d1c0>, <rdkit.Chem.rdchem.Mol object at 0x7fdd1488da80>, <rdkit.Chem.rdchem.Mol object at 0x7fdd1488dfc0>]","[<rdkit.Chem.rdchem.Mol object at 0x7fdd1488dd90>, <rdkit.Chem.rdchem.Mol object at 0x7fdd1488c890>, <rdkit.Chem.rdchem.Mol object at 0x7fdd1488daf0>, <rdkit.Chem.rdchem.Mol object at 0x7fdd1488d380>, <rdkit.Chem.rdchem.Mol object at 0x7fdd1488d8c0>, <rdkit.Chem.rdchem.Mol object at 0x7fdd1488d930>]","[<rdkit.Chem.rdchem.Mol object at 0x7fdd1488db60>, <rdkit.Chem.rdchem.Mol object at 0x7fdd1488c190>, <rdkit.Chem.rdchem.Mol object at 0x7fdd1488d5b0>, <rdkit.Chem.rdchem.Mol object at 0x7fdd1488d1c0>, <rdkit.Chem.rdchem.Mol object at 0x7fdd1488da80>, <rdkit.Chem.rdchem.Mol object at 0x7fdd1488dfc0>, '.', <rdkit.Chem.rdchem.Mol object at 0x7fdd1488dd90>, <rdkit.Chem.rdchem.Mol object at 0x7fdd1488c890>, <rdkit.Chem.rdchem.Mol object at 0x7fdd1488daf0>, <rdkit.Chem.rdchem.Mol object at 0x7fdd1488d380>, <rdkit.Chem.rdchem.Mol object at 0x7fdd1488d8c0>, <rdkit.Chem.rdchem.Mol object at 0x7fdd1488d930>]","[0, 0, 0, 0, 1887, 1888, 1889, 1890, 1891, 1892, 1, 1893, 1894, 1895, 1896, 1897, 1898]"
PBDB-T,FTIC-C8C6,-5.297714285714285,-3.4170000000000003,-5.62,-3.83,1.0,DCB,DIO,25.0,MoOx,PFN-Br,9.91,9.99,0.92,67.46,"[<rdkit.Chem.rdchem.Mol object at 0x7fdd1488cf90>, <rdkit.Chem.rdchem.Mol object at 0x7fdd1488d690>, <rdkit.Chem.rdchem.Mol object at 0x7fdd1488dcb0>, <rdkit.Chem.rdchem.Mol object at 0x7fdd1488e340>, <rdkit.Chem.rdchem.Mol object at 0x7fdd1488ed50>]","[<rdkit.Chem.rdchem.Mol object at 0x7fdd1488ef80>, <rdkit.Chem.rdchem.Mol object at 0x7fdd1488e500>, <rdkit.Chem.rdchem.Mol object at 0x7fdd1488e030>, <rdkit.Chem.rdchem.Mol object at 0x7fdd1488e810>]","[<rdkit.Chem.rdchem.Mol object at 0x7fdd1488cf90>, <rdkit.Chem.rdchem.Mol object at 0x7fdd1488d690>, <rdkit.Chem.rdchem.Mol object at 0x7fdd1488dcb0>, <rdkit.Chem.rdchem.Mol object at 0x7fdd1488e340>, <rdkit.Chem.rdchem.Mol object at 0x7fdd1488ed50>, '.', <rdkit.Chem.rdchem.Mol object at 0x7fdd1488ef80>, <rdkit.Chem.rdchem.Mol object at 0x7fdd1488e500>, <rdkit.Chem.rdchem.Mol object at 0x7fdd1488e030>, <rdkit.Chem.rdchem.Mol object at 0x7fdd1488e810>]","[0, 0, 0, 0, 0, 0, 0, 1899, 1900, 1901, 1902, 1903, 1, 1904, 1905, 1906, 1907]"
PBDB-T,FTIC-C6C6,-5.297714285714285,-3.4170000000000003,-5.6,-3.81,1.0,DCB,DIO,25.0,MoOx,PFN-Br,9.18,9.21,0.91,63.17,"[<rdkit.Chem.rdchem.Mol object at 0x7fdd1488e490>, <rdkit.Chem.rdchem.Mol object at 0x7fdd1488e420>, <rdkit.Chem.rdchem.Mol object at 0x7fdd1488d700>, <rdkit.Chem.rdchem.Mol object at 0x7fdd1488d7e0>, <rdkit.Chem.rdchem.Mol object at 0x7fdd1488e5e0>]","[<rdkit.Chem.rdchem.Mol object at 0x7fdd1488f3e0>, <rdkit.Chem.rdchem.Mol object at 0x7fdd1488d9a0>, <rdkit.Chem.rdchem.Mol object at 0x7fdd1488d2a0>, <rdkit.Chem.rdchem.Mol object at 0x7fdd1488eb20>]","[<rdkit.Chem.rdchem.Mol object at 0x7fdd1488e490>, <rdkit.Chem.rdchem.Mol object at 0x7fdd1488e420>, <rdkit.Chem.rdchem.Mol object at 0x7fdd1488d700>, <rdkit.Chem.rdchem.Mol object at 0x7fdd1488d7e0>, <rdkit.Chem.rdchem.Mol object at 0x7fdd1488e5e0>, '.', <rdkit.Chem.rdchem.Mol object at 0x7fdd1488f3e0>, <rdkit.Chem.rdchem.Mol object at 0x7fdd1488d9a0>, <rdkit.Chem.rdchem.Mol object at 0x7fdd1488d2a0>, <rdkit.Chem.rdchem.Mol object at 0x7fdd1488eb20>]","[0, 0, 0, 0, 0, 0, 0, 1908, 1909, 1910, 1911, 1912, 1, 1913, 1914, 1915, 1916]"
PBDB-T,FTIC-C6C8,-5.297714285714285,-3.4170000000000003,-5.64,-3.81,1.0,DCB,DIO,25.0,MoOx,PFN-Br,11.12,11.05,0.92,64.72,"[<rdkit.Chem.rdchem.Mol object at 0x7fdd1488de70>, <rdkit.Chem.rdchem.Mol object at 0x7fdd1488d150>, <rdkit.Chem.rdchem.Mol object at 0x7fdd1488e570>, <rdkit.Chem.rdchem.Mol object at 0x7fdd1488e960>, <rdkit.Chem.rdchem.Mol object at 0x7fdd1488ce40>]","[<rdkit.Chem.rdchem.Mol object at 0x7fdd1488f840>, <rdkit.Chem.rdchem.Mol object at 0x7fdd1488e110>, <rdkit.Chem.rdchem.Mol object at 0x7fdd1488dbd0>, <rdkit.Chem.rdchem.Mol object at 0x7fdd1488e9d0>]","[<rdkit.Chem.rdchem.Mol object at 0x7fdd1488de70>, <rdkit.Chem.rdchem.Mol object at 0x7fdd1488d150>, <rdkit.Chem.rdchem.Mol object at 0x7fdd1488e570>, <rdkit.Chem.rdchem.Mol object at 0x7fdd1488e960>, <rdkit.Chem.rdchem.Mol object at 0x7fdd1488ce40>, '.', <rdkit.Chem.rdchem.Mol object at 0x7fdd1488f840>, <rdkit.Chem.rdchem.Mol object at 0x7fdd1488e110>, <rdkit.Chem.rdchem.Mol object at 0x7fdd1488dbd0>, <rdkit.Chem.rdchem.Mol object at 0x7fdd1488e9d0>]","[0, 0, 0, 0, 0, 0, 0, 1917, 1918, 1919, 1920, 1921, 1, 1922, 1923, 1924, 1925]"
PBDB-T,IXIC,-5.297714285714285,-3.4170000000000003,-5.13,-3.78,1.0,CF,_,100.0,PEDOT:PSS,ZrAcAc,11.3,11.21,0.82,65.4,"[<rdkit.Chem.rdchem.Mol object at 0x7fdd1488f220>, <rdkit.Chem.rdchem.Mol object at 0x7fdd1488f0d0>, <rdkit.Chem.rdchem.Mol object at 0x7fdd1488f4c0>, <rdkit.Chem.rdchem.Mol object at 0x7fdd1488f8b0>, <rdkit.Chem.rdchem.Mol object at 0x7fdd1488fca0>]","[<rdkit.Chem.rdchem.Mol object at 0x7fdd1488fd10>, <rdkit.Chem.rdchem.Mol object at 0x7fdd1488eab0>, <rdkit.Chem.rdchem.Mol object at 0x7fdd1488dd20>, <rdkit.Chem.rdchem.Mol object at 0x7fdd1488f6f0>, <rdkit.Chem.rdchem.Mol object at 0x7fdd1488d770>]","[<rdkit.Chem.rdchem.Mol object at 0x7fdd1488f220>, <rdkit.Chem.rdchem.Mol object at 0x7fdd1488f0d0>, <rdkit.Chem.rdchem.Mol object at 0x7fdd1488f4c0>, <rdkit.Chem.rdchem.Mol object at 0x7fdd1488f8b0>, <rdkit.Chem.rdchem.Mol object at 0x7fdd1488fca0>, '.', <rdkit.Chem.rdchem.Mol object at 0x7fdd1488fd10>, <rdkit.Chem.rdchem.Mol object at 0x7fdd1488eab0>, <rdkit.Chem.rdchem.Mol object at 0x7fdd1488dd20>, <rdkit.Chem.rdchem.Mol object at 0x7fdd1488f6f0>, <rdkit.Chem.rdchem.Mol object at 0x7fdd1488d770>]","[0, 0, 0, 0, 0, 0, 1939, 1940, 1941, 1942, 1943, 1, 1944, 1945, 1946, 1947, 1948]"
PBDB-T,IXIC-4Cl,-5.297714285714285,-3.4170000000000003,-5.2,-3.95,1.0,CF,_,100.0,PEDOT:PSS,ZrAcAc,11.2,11.25,0.69,71.2,"[<rdkit.Chem.rdchem.Mol object at 0x7fdd1488f060>, <rdkit.Chem.rdchem.Mol object at 0x7fdd1488fb50>, <rdkit.Chem.rdchem.Mol object at 0x7fdd1488fbc0>, <rdkit.Chem.rdchem.Mol object at 0x7fdd1488df50>, <rdkit.Chem.rdchem.Mol object at 0x7fdd14898430>]","[<rdkit.Chem.rdchem.Mol object at 0x7fdd1488fa70>, <rdkit.Chem.rdchem.Mol object at 0x7fdd1488f7d0>, <rdkit.Chem.rdchem.Mol object at 0x7fdd1488f300>, <rdkit.Chem.rdchem.Mol object at 0x7fdd1488fa00>, <rdkit.Chem.rdchem.Mol object at 0x7fdd1488fdf0>]","[<rdkit.Chem.rdchem.Mol object at 0x7fdd1488f060>, <rdkit.Chem.rdchem.Mol object at 0x7fdd1488fb50>, <rdkit.Chem.rdchem.Mol object at 0x7fdd1488fbc0>, <rdkit.Chem.rdchem.Mol object at 0x7fdd1488df50>, <rdkit.Chem.rdchem.Mol object at 0x7fdd14898430>, '.', <rdkit.Chem.rdchem.Mol object at 0x7fdd1488fa70>, <rdkit.Chem.rdchem.Mol object at 0x7fdd1488f7d0>, <rdkit.Chem.rdchem.Mol object at 0x7fdd1488f300>, <rdkit.Chem.rdchem.Mol object at 0x7fdd1488fa00>, <rdkit.Chem.rdchem.Mol object at 0x7fdd1488fdf0>]","[0, 0, 0, 0, 0, 0, 1949, 1950, 1951, 1952, 1953, 1, 1954, 1955, 1956, 1957, 1958]"
HFQx-T,ITTC,-5.45,-3.5,-5.49,-3.85,1.0,CF,_,130.0,PEDOT:PSS,PDINO,10.4,10.3,0.88,71.0,"[<rdkit.Chem.rdchem.Mol object at 0x7fdd1488e2d0>, <rdkit.Chem.rdchem.Mol object at 0x7fdd1488f370>, <rdkit.Chem.rdchem.Mol object at 0x7fdd1488ff40>, <rdkit.Chem.rdchem.Mol object at 0x7fdd1488f140>, <rdkit.Chem.rdchem.Mol object at 0x7fdd1488f990>, <rdkit.Chem.rdchem.Mol object at 0x7fdd14898740>, <rdkit.Chem.rdchem.Mol object at 0x7fdd14898ac0>, <rdkit.Chem.rdchem.Mol object at 0x7fdd14899af0>]","[<rdkit.Chem.rdchem.Mol object at 0x7fdd1488f530>, <rdkit.Chem.rdchem.Mol object at 0x7fdd1488ece0>, <rdkit.Chem.rdchem.Mol object at 0x7fdd1488fae0>, <rdkit.Chem.rdchem.Mol object at 0x7fdd1488e650>, <rdkit.Chem.rdchem.Mol object at 0x7fdd14899690>]","[<rdkit.Chem.rdchem.Mol object at 0x7fdd1488e2d0>, <rdkit.Chem.rdchem.Mol object at 0x7fdd1488f370>, <rdkit.Chem.rdchem.Mol object at 0x7fdd1488ff40>, <rdkit.Chem.rdchem.Mol object at 0x7fdd1488f140>, <rdkit.Chem.rdchem.Mol object at 0x7fdd1488f990>, <rdkit.Chem.rdchem.Mol object at 0x7fdd14898740>, <rdkit.Chem.rdchem.Mol object at 0x7fdd14898ac0>, <rdkit.Chem.rdchem.Mol object at 0x7fdd14899af0>, '.', <rdkit.Chem.rdchem.Mol object at 0x7fdd1488f530>, <rdkit.Chem.rdchem.Mol object at 0x7fdd1488ece0>, <rdkit.Chem.rdchem.Mol object at 0x7fdd1488fae0>, <rdkit.Chem.rdchem.Mol object at 0x7fdd1488e650>, <rdkit.Chem.rdchem.Mol object at 0x7fdd14899690>]","[0, 0, 0, 1959, 1960, 1961, 1962, 1963, 1964, 1965, 1966, 1, 1967, 1968, 1969, 1970, 1971]"