Donor,Acceptor,HOMO_D_eV,LUMO_D_eV,HOMO_A_eV,LUMO_A_eV,D_A_ratio_m_m,solvent,solvent_additive,annealing_temperature,hole_contact_layer,electron_contact_layer,PCE_percent,calc_PCE_percent,Voc_V,FF_percent,Donor_BRICS,Acceptor_BRICS,DA_pair_BRICS,DA_tokenized_BRICS
PBDB-T,IDTO-T-4F,-5.297714285714285,-3.4170000000000003,-5.49,-3.88,0.833,CF,DIO,25.0,PEDOT:PSS,PDINO,12.62,12.64,0.864,72.7,"[<rdkit.Chem.rdchem.Mol object at 0x7fdd147a7a00>, <rdkit.Chem.rdchem.Mol object at 0x7fdd147a58c0>, <rdkit.Chem.rdchem.Mol object at 0x7fdd147a6500>, <rdkit.Chem.rdchem.Mol object at 0x7fdd147a6490>, <rdkit.Chem.rdchem.Mol object at 0x7fdd147b0200>]","[<rdkit.Chem.rdchem.Mol object at 0x7fdd147a7bc0>, <rdkit.Chem.rdchem.Mol object at 0x7fdd147a7df0>, <rdkit.Chem.rdchem.Mol object at 0x7fdd147a62d0>, <rdkit.Chem.rdchem.Mol object at 0x7fdd147a7ae0>, <rdkit.Chem.rdchem.Mol object at 0x7fdd147a6dc0>, <rdkit.Chem.rdchem.Mol object at 0x7fdd147a7920>, <rdkit.Chem.rdchem.Mol object at 0x7fdd147b0350>, <rdkit.Chem.rdchem.Mol object at 0x7fdd147a5850>]","[<rdkit.Chem.rdchem.Mol object at 0x7fdd147a7a00>, <rdkit.Chem.rdchem.Mol object at 0x7fdd147a58c0>, <rdkit.Chem.rdchem.Mol object at 0x7fdd147a6500>, <rdkit.Chem.rdchem.Mol object at 0x7fdd147a6490>, <rdkit.Chem.rdchem.Mol object at 0x7fdd147b0200>, '.', <rdkit.Chem.rdchem.Mol object at 0x7fdd147a7bc0>, <rdkit.Chem.rdchem.Mol object at 0x7fdd147a7df0>, <rdkit.Chem.rdchem.Mol object at 0x7fdd147a62d0>, <rdkit.Chem.rdchem.Mol object at 0x7fdd147a7ae0>, <rdkit.Chem.rdchem.Mol object at 0x7fdd147a6dc0>, <rdkit.Chem.rdchem.Mol object at 0x7fdd147a7920>, <rdkit.Chem.rdchem.Mol object at 0x7fdd147b0350>, <rdkit.Chem.rdchem.Mol object at 0x7fdd147a5850>]","[0, 0, 0, 5113, 5114, 5115, 5116, 5117, 1, 5118, 5119, 5120, 5121, 5122, 5123, 5124, 5125]"
PBDB-T,IDTO-Se-4F,-5.297714285714285,-3.4170000000000003,-5.48,-3.9,0.909,CB,DIO,25.0,PEDOT:PSS,PDINO,10.67,10.67,0.831,69.2,"[<rdkit.Chem.rdchem.Mol object at 0x7fdd147a5a80>, <rdkit.Chem.rdchem.Mol object at 0x7fdd147a6ff0>, <rdkit.Chem.rdchem.Mol object at 0x7fdd147a6260>, <rdkit.Chem.rdchem.Mol object at 0x7fdd147a7d10>, <rdkit.Chem.rdchem.Mol object at 0x7fdd147b0820>]","[<rdkit.Chem.rdchem.Mol object at 0x7fdd147a7990>, <rdkit.Chem.rdchem.Mol object at 0x7fdd147a53f0>, <rdkit.Chem.rdchem.Mol object at 0x7fdd147a6ce0>, <rdkit.Chem.rdchem.Mol object at 0x7fdd147a7d80>, <rdkit.Chem.rdchem.Mol object at 0x7fdd147a7ca0>, <rdkit.Chem.rdchem.Mol object at 0x7fdd147a7140>]","[<rdkit.Chem.rdchem.Mol object at 0x7fdd147a5a80>, <rdkit.Chem.rdchem.Mol object at 0x7fdd147a6ff0>, <rdkit.Chem.rdchem.Mol object at 0x7fdd147a6260>, <rdkit.Chem.rdchem.Mol object at 0x7fdd147a7d10>, <rdkit.Chem.rdchem.Mol object at 0x7fdd147b0820>, '.', <rdkit.Chem.rdchem.Mol object at 0x7fdd147a7990>, <rdkit.Chem.rdchem.Mol object at 0x7fdd147a53f0>, <rdkit.Chem.rdchem.Mol object at 0x7fdd147a6ce0>, <rdkit.Chem.rdchem.Mol object at 0x7fdd147a7d80>, <rdkit.Chem.rdchem.Mol object at 0x7fdd147a7ca0>, <rdkit.Chem.rdchem.Mol object at 0x7fdd147a7140>]","[0, 0, 0, 0, 0, 5126, 5127, 5128, 5129, 5130, 1, 5131, 5132, 5133, 5134, 5135, 5136]"
PBDB-T,IDTO-TT-4F,-5.297714285714285,-3.4170000000000003,-5.39,-3.89,0.909,CF,DIO,25.0,PEDOT:PSS,PDINO,10.21,10.22,0.856,69.4,"[<rdkit.Chem.rdchem.Mol object at 0x7fdd147a7b50>, <rdkit.Chem.rdchem.Mol object at 0x7fdd147a7f40>, <rdkit.Chem.rdchem.Mol object at 0x7fdd147a71b0>, <rdkit.Chem.rdchem.Mol object at 0x7fdd147b00b0>, <rdkit.Chem.rdchem.Mol object at 0x7fdd147b0eb0>]","[<rdkit.Chem.rdchem.Mol object at 0x7fdd147a7e60>, <rdkit.Chem.rdchem.Mol object at 0x7fdd147a7a70>, <rdkit.Chem.rdchem.Mol object at 0x7fdd147a74c0>, <rdkit.Chem.rdchem.Mol object at 0x7fdd147a78b0>, <rdkit.Chem.rdchem.Mol object at 0x7fdd147a6a40>, <rdkit.Chem.rdchem.Mol object at 0x7fdd147b1000>, <rdkit.Chem.rdchem.Mol object at 0x7fdd147b0ba0>, <rdkit.Chem.rdchem.Mol object at 0x7fdd147b0040>]","[<rdkit.Chem.rdchem.Mol object at 0x7fdd147a7b50>, <rdkit.Chem.rdchem.Mol object at 0x7fdd147a7f40>, <rdkit.Chem.rdchem.Mol object at 0x7fdd147a71b0>, <rdkit.Chem.rdchem.Mol object at 0x7fdd147b00b0>, <rdkit.Chem.rdchem.Mol object at 0x7fdd147b0eb0>, '.', <rdkit.Chem.rdchem.Mol object at 0x7fdd147a7e60>, <rdkit.Chem.rdchem.Mol object at 0x7fdd147a7a70>, <rdkit.Chem.rdchem.Mol object at 0x7fdd147a74c0>, <rdkit.Chem.rdchem.Mol object at 0x7fdd147a78b0>, <rdkit.Chem.rdchem.Mol object at 0x7fdd147a6a40>, <rdkit.Chem.rdchem.Mol object at 0x7fdd147b1000>, <rdkit.Chem.rdchem.Mol object at 0x7fdd147b0ba0>, <rdkit.Chem.rdchem.Mol object at 0x7fdd147b0040>]","[0, 0, 0, 5137, 5138, 5139, 5140, 5141, 1, 5142, 5143, 5144, 5145, 5146, 5147, 5148, 5149]"
PBDB-T,IDT2Se,-5.297714285714285,-3.4170000000000003,-5.41,-3.87,1.0,CB,_,80.0,PEDOT:PSS,PDINO,9.11,9.11,0.88,59.8,"[<rdkit.Chem.rdchem.Mol object at 0x7fdd147a5930>, <rdkit.Chem.rdchem.Mol object at 0x7fdd147b04a0>, <rdkit.Chem.rdchem.Mol object at 0x7fdd147b07b0>, <rdkit.Chem.rdchem.Mol object at 0x7fdd147b0900>, <rdkit.Chem.rdchem.Mol object at 0x7fdd147b14d0>]","[<rdkit.Chem.rdchem.Mol object at 0x7fdd147a7060>, <rdkit.Chem.rdchem.Mol object at 0x7fdd147b1620>, <rdkit.Chem.rdchem.Mol object at 0x7fdd147a6f10>, <rdkit.Chem.rdchem.Mol object at 0x7fdd147a77d0>]","[<rdkit.Chem.rdchem.Mol object at 0x7fdd147a5930>, <rdkit.Chem.rdchem.Mol object at 0x7fdd147b04a0>, <rdkit.Chem.rdchem.Mol object at 0x7fdd147b07b0>, <rdkit.Chem.rdchem.Mol object at 0x7fdd147b0900>, <rdkit.Chem.rdchem.Mol object at 0x7fdd147b14d0>, '.', <rdkit.Chem.rdchem.Mol object at 0x7fdd147a7060>, <rdkit.Chem.rdchem.Mol object at 0x7fdd147b1620>, <rdkit.Chem.rdchem.Mol object at 0x7fdd147a6f10>, <rdkit.Chem.rdchem.Mol object at 0x7fdd147a77d0>]","[0, 0, 0, 0, 0, 0, 0, 5150, 5151, 5152, 5153, 5154, 1, 5155, 5156, 5157, 5158]"
PBDB-T,IDT2Se-4F,-5.297714285714285,-3.4170000000000003,-5.51,-4.0,1.0,CB,_,80.0,PEDOT:PSS,PDINO,11.03,11.03,0.79,65.4,"[<rdkit.Chem.rdchem.Mol object at 0x7fdd147a75a0>, <rdkit.Chem.rdchem.Mol object at 0x7fdd147b06d0>, <rdkit.Chem.rdchem.Mol object at 0x7fdd147b05f0>, <rdkit.Chem.rdchem.Mol object at 0x7fdd147b0a50>, <rdkit.Chem.rdchem.Mol object at 0x7fdd147b0f20>]","[<rdkit.Chem.rdchem.Mol object at 0x7fdd147a66c0>, <rdkit.Chem.rdchem.Mol object at 0x7fdd147b1380>, <rdkit.Chem.rdchem.Mol object at 0x7fdd147a4c80>, <rdkit.Chem.rdchem.Mol object at 0x7fdd147b1a80>]","[<rdkit.Chem.rdchem.Mol object at 0x7fdd147a75a0>, <rdkit.Chem.rdchem.Mol object at 0x7fdd147b06d0>, <rdkit.Chem.rdchem.Mol object at 0x7fdd147b05f0>, <rdkit.Chem.rdchem.Mol object at 0x7fdd147b0a50>, <rdkit.Chem.rdchem.Mol object at 0x7fdd147b0f20>, '.', <rdkit.Chem.rdchem.Mol object at 0x7fdd147a66c0>, <rdkit.Chem.rdchem.Mol object at 0x7fdd147b1380>, <rdkit.Chem.rdchem.Mol object at 0x7fdd147a4c80>, <rdkit.Chem.rdchem.Mol object at 0x7fdd147b1a80>]","[0, 0, 0, 0, 0, 0, 0, 5159, 5160, 5161, 5162, 5163, 1, 5164, 5165, 5166, 5167]"
PBDT-Se-TAZ,ITIC,-5.23,-3.45,-5.574146341463415,-3.915,1.0,CF,DIO,25.0,MoOx,ZnO,10.07,10.07,0.81,66.7,"[<rdkit.Chem.rdchem.Mol object at 0x7fdd147a5620>, <rdkit.Chem.rdchem.Mol object at 0x7fdd147a4510>, <rdkit.Chem.rdchem.Mol object at 0x7fdd147b1070>, <rdkit.Chem.rdchem.Mol object at 0x7fdd147a7450>, <rdkit.Chem.rdchem.Mol object at 0x7fdd147b1850>]","[<rdkit.Chem.rdchem.Mol object at 0x7fdd147b1150>, <rdkit.Chem.rdchem.Mol object at 0x7fdd147b0b30>, <rdkit.Chem.rdchem.Mol object at 0x7fdd147a73e0>, <rdkit.Chem.rdchem.Mol object at 0x7fdd147b0dd0>, <rdkit.Chem.rdchem.Mol object at 0x7fdd147b02e0>]","[<rdkit.Chem.rdchem.Mol object at 0x7fdd147a5620>, <rdkit.Chem.rdchem.Mol object at 0x7fdd147a4510>, <rdkit.Chem.rdchem.Mol object at 0x7fdd147b1070>, <rdkit.Chem.rdchem.Mol object at 0x7fdd147a7450>, <rdkit.Chem.rdchem.Mol object at 0x7fdd147b1850>, '.', <rdkit.Chem.rdchem.Mol object at 0x7fdd147b1150>, <rdkit.Chem.rdchem.Mol object at 0x7fdd147b0b30>, <rdkit.Chem.rdchem.Mol object at 0x7fdd147a73e0>, <rdkit.Chem.rdchem.Mol object at 0x7fdd147b0dd0>, <rdkit.Chem.rdchem.Mol object at 0x7fdd147b02e0>]","[0, 0, 0, 0, 0, 0, 5168, 5169, 5170, 5171, 5172, 1, 5173, 5174, 5175, 5176, 5177]"
PBDTS-Se-TAZ,ITIC,-5.29,-3.49,-5.574146341463415,-3.915,1.0,CF,DIO,25.0,MoOx,ZnO,12.31,12.31,0.84,75.1,"[<rdkit.Chem.rdchem.Mol object at 0x7fdd147a7ed0>, <rdkit.Chem.rdchem.Mol object at 0x7fdd147b1310>, <rdkit.Chem.rdchem.Mol object at 0x7fdd147b0c10>, <rdkit.Chem.rdchem.Mol object at 0x7fdd147b0270>, <rdkit.Chem.rdchem.Mol object at 0x7fdd147b0890>, <rdkit.Chem.rdchem.Mol object at 0x7fdd147b10e0>]","[<rdkit.Chem.rdchem.Mol object at 0x7fdd147b0190>, <rdkit.Chem.rdchem.Mol object at 0x7fdd147b1c40>, <rdkit.Chem.rdchem.Mol object at 0x7fdd147b1700>, <rdkit.Chem.rdchem.Mol object at 0x7fdd147b1930>, <rdkit.Chem.rdchem.Mol object at 0x7fdd147b1bd0>]","[<rdkit.Chem.rdchem.Mol object at 0x7fdd147a7ed0>, <rdkit.Chem.rdchem.Mol object at 0x7fdd147b1310>, <rdkit.Chem.rdchem.Mol object at 0x7fdd147b0c10>, <rdkit.Chem.rdchem.Mol object at 0x7fdd147b0270>, <rdkit.Chem.rdchem.Mol object at 0x7fdd147b0890>, <rdkit.Chem.rdchem.Mol object at 0x7fdd147b10e0>, '.', <rdkit.Chem.rdchem.Mol object at 0x7fdd147b0190>, <rdkit.Chem.rdchem.Mol object at 0x7fdd147b1c40>, <rdkit.Chem.rdchem.Mol object at 0x7fdd147b1700>, <rdkit.Chem.rdchem.Mol object at 0x7fdd147b1930>, <rdkit.Chem.rdchem.Mol object at 0x7fdd147b1bd0>]","[0, 0, 0, 0, 0, 5178, 5179, 5180, 5181, 5182, 5183, 1, 5184, 5185, 5186, 5187, 5188]"
PBDB-TF,IT-M,-5.497142857142857,-3.6428571428571423,-5.513571428571429,-3.808,1.0,CB,DIO,100.0,PEDOT:PSS,PFN-Br,10.5,10.47,1.02,65.0,"[<rdkit.Chem.rdchem.Mol object at 0x7fdd147a4f20>, <rdkit.Chem.rdchem.Mol object at 0x7fdd147b19a0>, <rdkit.Chem.rdchem.Mol object at 0x7fdd147b11c0>, <rdkit.Chem.rdchem.Mol object at 0x7fdd147b1af0>, <rdkit.Chem.rdchem.Mol object at 0x7fdd147b1f50>, <rdkit.Chem.rdchem.Mol object at 0x7fdd147b25e0>]","[<rdkit.Chem.rdchem.Mol object at 0x7fdd147b29d0>, <rdkit.Chem.rdchem.Mol object at 0x7fdd147b1690>, <rdkit.Chem.rdchem.Mol object at 0x7fdd147b1ee0>, <rdkit.Chem.rdchem.Mol object at 0x7fdd147b2110>, <rdkit.Chem.rdchem.Mol object at 0x7fdd147b0970>]","[<rdkit.Chem.rdchem.Mol object at 0x7fdd147a4f20>, <rdkit.Chem.rdchem.Mol object at 0x7fdd147b19a0>, <rdkit.Chem.rdchem.Mol object at 0x7fdd147b11c0>, <rdkit.Chem.rdchem.Mol object at 0x7fdd147b1af0>, <rdkit.Chem.rdchem.Mol object at 0x7fdd147b1f50>, <rdkit.Chem.rdchem.Mol object at 0x7fdd147b25e0>, '.', <rdkit.Chem.rdchem.Mol object at 0x7fdd147b29d0>, <rdkit.Chem.rdchem.Mol object at 0x7fdd147b1690>, <rdkit.Chem.rdchem.Mol object at 0x7fdd147b1ee0>, <rdkit.Chem.rdchem.Mol object at 0x7fdd147b2110>, <rdkit.Chem.rdchem.Mol object at 0x7fdd147b0970>]","[0, 0, 0, 0, 0, 5189, 5190, 5191, 5192, 5193, 5194, 1, 5195, 5196, 5197, 5198, 5199]"
PBDB-TF,IT-4F,-5.497142857142857,-3.6428571428571423,-5.66875,-4.060416666666667,1.0,CB,DIO,100.0,PEDOT:PSS,PFN-Br,13.7,13.65,0.87,77.0,"[<rdkit.Chem.rdchem.Mol object at 0x7fdd147a7840>, <rdkit.Chem.rdchem.Mol object at 0x7fdd147b2570>, <rdkit.Chem.rdchem.Mol object at 0x7fdd147b0580>, <rdkit.Chem.rdchem.Mol object at 0x7fdd147b0660>, <rdkit.Chem.rdchem.Mol object at 0x7fdd147b1a10>, <rdkit.Chem.rdchem.Mol object at 0x7fdd147b2340>]","[<rdkit.Chem.rdchem.Mol object at 0x7fdd147b2d50>, <rdkit.Chem.rdchem.Mol object at 0x7fdd147b1b60>, <rdkit.Chem.rdchem.Mol object at 0x7fdd147b2960>, <rdkit.Chem.rdchem.Mol object at 0x7fdd147b1d20>, <rdkit.Chem.rdchem.Mol object at 0x7fdd147b1460>]","[<rdkit.Chem.rdchem.Mol object at 0x7fdd147a7840>, <rdkit.Chem.rdchem.Mol object at 0x7fdd147b2570>, <rdkit.Chem.rdchem.Mol object at 0x7fdd147b0580>, <rdkit.Chem.rdchem.Mol object at 0x7fdd147b0660>, <rdkit.Chem.rdchem.Mol object at 0x7fdd147b1a10>, <rdkit.Chem.rdchem.Mol object at 0x7fdd147b2340>, '.', <rdkit.Chem.rdchem.Mol object at 0x7fdd147b2d50>, <rdkit.Chem.rdchem.Mol object at 0x7fdd147b1b60>, <rdkit.Chem.rdchem.Mol object at 0x7fdd147b2960>, <rdkit.Chem.rdchem.Mol object at 0x7fdd147b1d20>, <rdkit.Chem.rdchem.Mol object at 0x7fdd147b1460>]","[0, 0, 0, 0, 0, 5200, 5201, 5202, 5203, 5204, 5205, 1, 5206, 5207, 5208, 5209, 5210]"
PBZ1,ITIC,-5.27,-3.06,-5.574146341463415,-3.915,1.0,Toluene,_,160.0,MoOx,ZnO,5.8,5.79,0.74,49.8,"[<rdkit.Chem.rdchem.Mol object at 0x7fdd147b1e00>, <rdkit.Chem.rdchem.Mol object at 0x7fdd147b0510>, <rdkit.Chem.rdchem.Mol object at 0x7fdd147b0e40>, <rdkit.Chem.rdchem.Mol object at 0x7fdd147b2180>, <rdkit.Chem.rdchem.Mol object at 0x7fdd147b2420>, <rdkit.Chem.rdchem.Mol object at 0x7fdd147b20a0>, <rdkit.Chem.rdchem.Mol object at 0x7fdd147b12a0>, <rdkit.Chem.rdchem.Mol object at 0x7fdd147b1540>]","[<rdkit.Chem.rdchem.Mol object at 0x7fdd147b15b0>, <rdkit.Chem.rdchem.Mol object at 0x7fdd147b23b0>, <rdkit.Chem.rdchem.Mol object at 0x7fdd147b2e30>, <rdkit.Chem.rdchem.Mol object at 0x7fdd147b2b20>, <rdkit.Chem.rdchem.Mol object at 0x7fdd147b1770>]","[<rdkit.Chem.rdchem.Mol object at 0x7fdd147b1e00>, <rdkit.Chem.rdchem.Mol object at 0x7fdd147b0510>, <rdkit.Chem.rdchem.Mol object at 0x7fdd147b0e40>, <rdkit.Chem.rdchem.Mol object at 0x7fdd147b2180>, <rdkit.Chem.rdchem.Mol object at 0x7fdd147b2420>, <rdkit.Chem.rdchem.Mol object at 0x7fdd147b20a0>, <rdkit.Chem.rdchem.Mol object at 0x7fdd147b12a0>, <rdkit.Chem.rdchem.Mol object at 0x7fdd147b1540>, '.', <rdkit.Chem.rdchem.Mol object at 0x7fdd147b15b0>, <rdkit.Chem.rdchem.Mol object at 0x7fdd147b23b0>, <rdkit.Chem.rdchem.Mol object at 0x7fdd147b2e30>, <rdkit.Chem.rdchem.Mol object at 0x7fdd147b2b20>, <rdkit.Chem.rdchem.Mol object at 0x7fdd147b1770>]","[0, 0, 0, 5211, 5212, 5213, 5214, 5215, 5216, 5217, 5218, 1, 5219, 5220, 5221, 5222, 5223]"
PBZ-m-CF3,ITIC,-5.49,-3.22,-5.574146341463415,-3.915,1.0,Toluene,_,160.0,MoOx,ZnO,10.4,10.41,0.94,60.2,"[<rdkit.Chem.rdchem.Mol object at 0x7fdd147b2c00>, <rdkit.Chem.rdchem.Mol object at 0x7fdd147b2880>, <rdkit.Chem.rdchem.Mol object at 0x7fdd147b2ab0>, <rdkit.Chem.rdchem.Mol object at 0x7fdd147b2f10>, <rdkit.Chem.rdchem.Mol object at 0x7fdd147b27a0>, <rdkit.Chem.rdchem.Mol object at 0x7fdd147b22d0>, <rdkit.Chem.rdchem.Mol object at 0x7fdd147b2500>, <rdkit.Chem.rdchem.Mol object at 0x7fdd147b18c0>, <rdkit.Chem.rdchem.Mol object at 0x7fdd147b2ce0>]","[<rdkit.Chem.rdchem.Mol object at 0x7fdd147b3220>, <rdkit.Chem.rdchem.Mol object at 0x7fdd147b2810>, <rdkit.Chem.rdchem.Mol object at 0x7fdd147b2490>, <rdkit.Chem.rdchem.Mol object at 0x7fdd147b2b90>, <rdkit.Chem.rdchem.Mol object at 0x7fdd147b09e0>]","[<rdkit.Chem.rdchem.Mol object at 0x7fdd147b2c00>, <rdkit.Chem.rdchem.Mol object at 0x7fdd147b2880>, <rdkit.Chem.rdchem.Mol object at 0x7fdd147b2ab0>, <rdkit.Chem.rdchem.Mol object at 0x7fdd147b2f10>, <rdkit.Chem.rdchem.Mol object at 0x7fdd147b27a0>, <rdkit.Chem.rdchem.Mol object at 0x7fdd147b22d0>, <rdkit.Chem.rdchem.Mol object at 0x7fdd147b2500>, <rdkit.Chem.rdchem.Mol object at 0x7fdd147b18c0>, <rdkit.Chem.rdchem.Mol object at 0x7fdd147b2ce0>, '.', <rdkit.Chem.rdchem.Mol object at 0x7fdd147b3220>, <rdkit.Chem.rdchem.Mol object at 0x7fdd147b2810>, <rdkit.Chem.rdchem.Mol object at 0x7fdd147b2490>, <rdkit.Chem.rdchem.Mol object at 0x7fdd147b2b90>, <rdkit.Chem.rdchem.Mol object at 0x7fdd147b09e0>]","[0, 0, 5224, 5225, 5226, 5227, 5228, 5229, 5230, 5231, 5232, 1, 5233, 5234, 5235, 5236, 5237]"
PBDB-TF,HF-PCIC,-5.497142857142857,-3.6428571428571423,-5.53,-3.83,0.833,CB,CN,110.0,MoOx,ZnO,10.97,10.67,0.92,72.42,"[<rdkit.Chem.rdchem.Mol object at 0x7fdd147b30d0>, <rdkit.Chem.rdchem.Mol object at 0x7fdd147b2a40>, <rdkit.Chem.rdchem.Mol object at 0x7fdd147b1230>, <rdkit.Chem.rdchem.Mol object at 0x7fdd147b21f0>, <rdkit.Chem.rdchem.Mol object at 0x7fdd147b35a0>, <rdkit.Chem.rdchem.Mol object at 0x7fdd147b3ae0>]","[<rdkit.Chem.rdchem.Mol object at 0x7fdd147b3e60>, <rdkit.Chem.rdchem.Mol object at 0x7fdd147b3450>, <rdkit.Chem.rdchem.Mol object at 0x7fdd147b37d0>, <rdkit.Chem.rdchem.Mol object at 0x7fdd147b3290>, <rdkit.Chem.rdchem.Mol object at 0x7fdd147b28f0>]","[<rdkit.Chem.rdchem.Mol object at 0x7fdd147b30d0>, <rdkit.Chem.rdchem.Mol object at 0x7fdd147b2a40>, <rdkit.Chem.rdchem.Mol object at 0x7fdd147b1230>, <rdkit.Chem.rdchem.Mol object at 0x7fdd147b21f0>, <rdkit.Chem.rdchem.Mol object at 0x7fdd147b35a0>, <rdkit.Chem.rdchem.Mol object at 0x7fdd147b3ae0>, '.', <rdkit.Chem.rdchem.Mol object at 0x7fdd147b3e60>, <rdkit.Chem.rdchem.Mol object at 0x7fdd147b3450>, <rdkit.Chem.rdchem.Mol object at 0x7fdd147b37d0>, <rdkit.Chem.rdchem.Mol object at 0x7fdd147b3290>, <rdkit.Chem.rdchem.Mol object at 0x7fdd147b28f0>]","[0, 0, 0, 0, 0, 5238, 5239, 5240, 5241, 5242, 5243, 1, 5244, 5245, 5246, 5247, 5248]"
PBDB-TF,HFO-PCIC,-5.497142857142857,-3.6428571428571423,-5.5,-3.81,0.833,CB,CN,110.0,MoOx,ZnO,8.36,8.33,0.93,70.99,"[<rdkit.Chem.rdchem.Mol object at 0x7fdd147b3ca0>, <rdkit.Chem.rdchem.Mol object at 0x7fdd147b2dc0>, <rdkit.Chem.rdchem.Mol object at 0x7fdd147b2030>, <rdkit.Chem.rdchem.Mol object at 0x7fdd147b0430>, <rdkit.Chem.rdchem.Mol object at 0x7fdd147b3370>, <rdkit.Chem.rdchem.Mol object at 0x7fdd147b82e0>]","[<rdkit.Chem.rdchem.Mol object at 0x7fdd147b17e0>, <rdkit.Chem.rdchem.Mol object at 0x7fdd147b2f80>, <rdkit.Chem.rdchem.Mol object at 0x7fdd147b3c30>, <rdkit.Chem.rdchem.Mol object at 0x7fdd147b0d60>, <rdkit.Chem.rdchem.Mol object at 0x7fdd147b0120>, <rdkit.Chem.rdchem.Mol object at 0x7fdd147b1cb0>]","[<rdkit.Chem.rdchem.Mol object at 0x7fdd147b3ca0>, <rdkit.Chem.rdchem.Mol object at 0x7fdd147b2dc0>, <rdkit.Chem.rdchem.Mol object at 0x7fdd147b2030>, <rdkit.Chem.rdchem.Mol object at 0x7fdd147b0430>, <rdkit.Chem.rdchem.Mol object at 0x7fdd147b3370>, <rdkit.Chem.rdchem.Mol object at 0x7fdd147b82e0>, '.', <rdkit.Chem.rdchem.Mol object at 0x7fdd147b17e0>, <rdkit.Chem.rdchem.Mol object at 0x7fdd147b2f80>, <rdkit.Chem.rdchem.Mol object at 0x7fdd147b3c30>, <rdkit.Chem.rdchem.Mol object at 0x7fdd147b0d60>, <rdkit.Chem.rdchem.Mol object at 0x7fdd147b0120>, <rdkit.Chem.rdchem.Mol object at 0x7fdd147b1cb0>]","[0, 0, 0, 0, 5249, 5250, 5251, 5252, 5253, 5254, 1, 5255, 5256, 5257, 5258, 5259, 5260]"
PBDB-TF,OF-PCIC,-5.497142857142857,-3.6428571428571423,-5.66,-3.86,0.833,CB,CN,110.0,MoOx,ZnO,9.09,9.19,0.91,73.37,"[<rdkit.Chem.rdchem.Mol object at 0x7fdd147b3b50>, <rdkit.Chem.rdchem.Mol object at 0x7fdd147b3df0>, <rdkit.Chem.rdchem.Mol object at 0x7fdd147b3990>, <rdkit.Chem.rdchem.Mol object at 0x7fdd147b3840>, <rdkit.Chem.rdchem.Mol object at 0x7fdd147b3d10>, <rdkit.Chem.rdchem.Mol object at 0x7fdd147b8900>]","[<rdkit.Chem.rdchem.Mol object at 0x7fdd147b3060>, <rdkit.Chem.rdchem.Mol object at 0x7fdd147b26c0>, <rdkit.Chem.rdchem.Mol object at 0x7fdd147b3ed0>, <rdkit.Chem.rdchem.Mol object at 0x7fdd147b2ff0>, <rdkit.Chem.rdchem.Mol object at 0x7fdd147b36f0>]","[<rdkit.Chem.rdchem.Mol object at 0x7fdd147b3b50>, <rdkit.Chem.rdchem.Mol object at 0x7fdd147b3df0>, <rdkit.Chem.rdchem.Mol object at 0x7fdd147b3990>, <rdkit.Chem.rdchem.Mol object at 0x7fdd147b3840>, <rdkit.Chem.rdchem.Mol object at 0x7fdd147b3d10>, <rdkit.Chem.rdchem.Mol object at 0x7fdd147b8900>, '.', <rdkit.Chem.rdchem.Mol object at 0x7fdd147b3060>, <rdkit.Chem.rdchem.Mol object at 0x7fdd147b26c0>, <rdkit.Chem.rdchem.Mol object at 0x7fdd147b3ed0>, <rdkit.Chem.rdchem.Mol object at 0x7fdd147b2ff0>, <rdkit.Chem.rdchem.Mol object at 0x7fdd147b36f0>]","[0, 0, 0, 0, 0, 5261, 5262, 5263, 5264, 5265, 5266, 1, 5267, 5268, 5269, 5270, 5271]"