Donor,Acceptor,HOMO_D_eV,LUMO_D_eV,HOMO_A_eV,LUMO_A_eV,D_A_ratio_m_m,solvent,solvent_additive,annealing_temperature,hole_contact_layer,electron_contact_layer,PCE_percent,calc_PCE_percent,Voc_V,FF_percent,Donor_BRICS,Acceptor_BRICS,DA_pair_BRICS,DA_tokenized_BRICS
PT2,ITIC,-5.35,-3.58,-5.574146341463415,-3.915,0.667,CB,_,25.0,MoOx,ZnO,9.0,8.78,0.84,64.0,"[<rdkit.Chem.rdchem.Mol object at 0x7fdd147321f0>, <rdkit.Chem.rdchem.Mol object at 0x7fdd1473d310>, <rdkit.Chem.rdchem.Mol object at 0x7fdd1473d230>, <rdkit.Chem.rdchem.Mol object at 0x7fdd1473ca50>, <rdkit.Chem.rdchem.Mol object at 0x7fdd1473d540>, <rdkit.Chem.rdchem.Mol object at 0x7fdd1473dfc0>]","[<rdkit.Chem.rdchem.Mol object at 0x7fdd1473e0a0>, <rdkit.Chem.rdchem.Mol object at 0x7fdd1473d700>, <rdkit.Chem.rdchem.Mol object at 0x7fdd1473d690>, <rdkit.Chem.rdchem.Mol object at 0x7fdd1473d620>, <rdkit.Chem.rdchem.Mol object at 0x7fdd1473c580>]","[<rdkit.Chem.rdchem.Mol object at 0x7fdd147321f0>, <rdkit.Chem.rdchem.Mol object at 0x7fdd1473d310>, <rdkit.Chem.rdchem.Mol object at 0x7fdd1473d230>, <rdkit.Chem.rdchem.Mol object at 0x7fdd1473ca50>, <rdkit.Chem.rdchem.Mol object at 0x7fdd1473d540>, <rdkit.Chem.rdchem.Mol object at 0x7fdd1473dfc0>, '.', <rdkit.Chem.rdchem.Mol object at 0x7fdd1473e0a0>, <rdkit.Chem.rdchem.Mol object at 0x7fdd1473d700>, <rdkit.Chem.rdchem.Mol object at 0x7fdd1473d690>, <rdkit.Chem.rdchem.Mol object at 0x7fdd1473d620>, <rdkit.Chem.rdchem.Mol object at 0x7fdd1473c580>]","[0, 0, 0, 0, 0, 3800, 3801, 3802, 3803, 3804, 3805, 1, 3806, 3807, 3808, 3809, 3810]"
PT3,ITIC,-5.37,-3.54,-5.574146341463415,-3.915,0.667,CB,_,25.0,MoOx,ZnO,9.21,9.29,0.88,68.0,"[<rdkit.Chem.rdchem.Mol object at 0x7fdd14731000>, <rdkit.Chem.rdchem.Mol object at 0x7fdd1473c350>, <rdkit.Chem.rdchem.Mol object at 0x7fdd1473c6d0>, <rdkit.Chem.rdchem.Mol object at 0x7fdd1473e7a0>, <rdkit.Chem.rdchem.Mol object at 0x7fdd1473e880>, <rdkit.Chem.rdchem.Mol object at 0x7fdd1473edc0>, <rdkit.Chem.rdchem.Mol object at 0x7fdd1473eff0>, <rdkit.Chem.rdchem.Mol object at 0x7fdd1473f450>]","[<rdkit.Chem.rdchem.Mol object at 0x7fdd1473f530>, <rdkit.Chem.rdchem.Mol object at 0x7fdd1473ec70>, <rdkit.Chem.rdchem.Mol object at 0x7fdd1473ec00>, <rdkit.Chem.rdchem.Mol object at 0x7fdd1473f220>, <rdkit.Chem.rdchem.Mol object at 0x7fdd1473e420>]","[<rdkit.Chem.rdchem.Mol object at 0x7fdd14731000>, <rdkit.Chem.rdchem.Mol object at 0x7fdd1473c350>, <rdkit.Chem.rdchem.Mol object at 0x7fdd1473c6d0>, <rdkit.Chem.rdchem.Mol object at 0x7fdd1473e7a0>, <rdkit.Chem.rdchem.Mol object at 0x7fdd1473e880>, <rdkit.Chem.rdchem.Mol object at 0x7fdd1473edc0>, <rdkit.Chem.rdchem.Mol object at 0x7fdd1473eff0>, <rdkit.Chem.rdchem.Mol object at 0x7fdd1473f450>, '.', <rdkit.Chem.rdchem.Mol object at 0x7fdd1473f530>, <rdkit.Chem.rdchem.Mol object at 0x7fdd1473ec70>, <rdkit.Chem.rdchem.Mol object at 0x7fdd1473ec00>, <rdkit.Chem.rdchem.Mol object at 0x7fdd1473f220>, <rdkit.Chem.rdchem.Mol object at 0x7fdd1473e420>]","[0, 0, 0, 3811, 3812, 3813, 3814, 3815, 3816, 3817, 3818, 1, 3819, 3820, 3821, 3822, 3823]"
PBDB-T,DF-TCIC,-5.297714285714285,-3.4170000000000003,-5.37,-3.76,0.833,CF,CN,140.0,MoOx,PFN,8.23,8.18,0.86,58.0,"[<rdkit.Chem.rdchem.Mol object at 0x7fdd14730580>, <rdkit.Chem.rdchem.Mol object at 0x7fdd1473f680>, <rdkit.Chem.rdchem.Mol object at 0x7fdd1473eea0>, <rdkit.Chem.rdchem.Mol object at 0x7fdd1473e500>, <rdkit.Chem.rdchem.Mol object at 0x7fdd1473c4a0>]","[<rdkit.Chem.rdchem.Mol object at 0x7fdd1473d000>, <rdkit.Chem.rdchem.Mol object at 0x7fdd1473e1f0>, <rdkit.Chem.rdchem.Mol object at 0x7fdd1473ef80>, <rdkit.Chem.rdchem.Mol object at 0x7fdd1473f1b0>, <rdkit.Chem.rdchem.Mol object at 0x7fdd1473e030>]","[<rdkit.Chem.rdchem.Mol object at 0x7fdd14730580>, <rdkit.Chem.rdchem.Mol object at 0x7fdd1473f680>, <rdkit.Chem.rdchem.Mol object at 0x7fdd1473eea0>, <rdkit.Chem.rdchem.Mol object at 0x7fdd1473e500>, <rdkit.Chem.rdchem.Mol object at 0x7fdd1473c4a0>, '.', <rdkit.Chem.rdchem.Mol object at 0x7fdd1473d000>, <rdkit.Chem.rdchem.Mol object at 0x7fdd1473e1f0>, <rdkit.Chem.rdchem.Mol object at 0x7fdd1473ef80>, <rdkit.Chem.rdchem.Mol object at 0x7fdd1473f1b0>, <rdkit.Chem.rdchem.Mol object at 0x7fdd1473e030>]","[0, 0, 0, 0, 0, 0, 3824, 3825, 3826, 3827, 3828, 1, 3829, 3830, 3831, 3832, 3833]"
PBDB-T,HF-TCIC,-5.297714285714285,-3.4170000000000003,-5.43,-3.83,0.833,CF,CN,120.0,MoOx,PFN,9.86,9.9,0.76,65.0,"[<rdkit.Chem.rdchem.Mol object at 0x7fdd1473c040>, <rdkit.Chem.rdchem.Mol object at 0x7fdd1473f290>, <rdkit.Chem.rdchem.Mol object at 0x7fdd1473eb90>, <rdkit.Chem.rdchem.Mol object at 0x7fdd1473ece0>, <rdkit.Chem.rdchem.Mol object at 0x7fdd1473dbd0>]","[<rdkit.Chem.rdchem.Mol object at 0x7fdd1473c970>, <rdkit.Chem.rdchem.Mol object at 0x7fdd1473e5e0>, <rdkit.Chem.rdchem.Mol object at 0x7fdd1473e570>, <rdkit.Chem.rdchem.Mol object at 0x7fdd1473e6c0>, <rdkit.Chem.rdchem.Mol object at 0x7fdd1473dd20>]","[<rdkit.Chem.rdchem.Mol object at 0x7fdd1473c040>, <rdkit.Chem.rdchem.Mol object at 0x7fdd1473f290>, <rdkit.Chem.rdchem.Mol object at 0x7fdd1473eb90>, <rdkit.Chem.rdchem.Mol object at 0x7fdd1473ece0>, <rdkit.Chem.rdchem.Mol object at 0x7fdd1473dbd0>, '.', <rdkit.Chem.rdchem.Mol object at 0x7fdd1473c970>, <rdkit.Chem.rdchem.Mol object at 0x7fdd1473e5e0>, <rdkit.Chem.rdchem.Mol object at 0x7fdd1473e570>, <rdkit.Chem.rdchem.Mol object at 0x7fdd1473e6c0>, <rdkit.Chem.rdchem.Mol object at 0x7fdd1473dd20>]","[0, 0, 0, 0, 0, 0, 3834, 3835, 3836, 3837, 3838, 1, 3839, 3840, 3841, 3842, 3843]"
BO2FC8,m-ITIC-OR-4Cl,-5.5,-3.6,-5.78,-4.05,0.667,CB,_,150.0,MoOx,ZnO,11.0,10.61,0.83,63.3,"[<rdkit.Chem.rdchem.Mol object at 0x7fdd1473e730>, <rdkit.Chem.rdchem.Mol object at 0x7fdd1473e810>, <rdkit.Chem.rdchem.Mol object at 0x7fdd1473de00>, <rdkit.Chem.rdchem.Mol object at 0x7fdd1473e8f0>, <rdkit.Chem.rdchem.Mol object at 0x7fdd1473e650>, <rdkit.Chem.rdchem.Mol object at 0x7fdd1473cac0>, <rdkit.Chem.rdchem.Mol object at 0x7fdd1473e9d0>, <rdkit.Chem.rdchem.Mol object at 0x7fdd1473dc40>]","[<rdkit.Chem.rdchem.Mol object at 0x7fdd1473db60>, <rdkit.Chem.rdchem.Mol object at 0x7fdd1473d0e0>, <rdkit.Chem.rdchem.Mol object at 0x7fdd1473f4c0>, <rdkit.Chem.rdchem.Mol object at 0x7fdd1473f140>, <rdkit.Chem.rdchem.Mol object at 0x7fdd1473d380>, <rdkit.Chem.rdchem.Mol object at 0x7fdd1473e960>]","[<rdkit.Chem.rdchem.Mol object at 0x7fdd1473e730>, <rdkit.Chem.rdchem.Mol object at 0x7fdd1473e810>, <rdkit.Chem.rdchem.Mol object at 0x7fdd1473de00>, <rdkit.Chem.rdchem.Mol object at 0x7fdd1473e8f0>, <rdkit.Chem.rdchem.Mol object at 0x7fdd1473e650>, <rdkit.Chem.rdchem.Mol object at 0x7fdd1473cac0>, <rdkit.Chem.rdchem.Mol object at 0x7fdd1473e9d0>, <rdkit.Chem.rdchem.Mol object at 0x7fdd1473dc40>, '.', <rdkit.Chem.rdchem.Mol object at 0x7fdd1473db60>, <rdkit.Chem.rdchem.Mol object at 0x7fdd1473d0e0>, <rdkit.Chem.rdchem.Mol object at 0x7fdd1473f4c0>, <rdkit.Chem.rdchem.Mol object at 0x7fdd1473f140>, <rdkit.Chem.rdchem.Mol object at 0x7fdd1473d380>, <rdkit.Chem.rdchem.Mol object at 0x7fdd1473e960>]","[0, 0, 3844, 3845, 3846, 3847, 3848, 3849, 3850, 3851, 1, 3852, 3853, 3854, 3855, 3856, 3857]"
BO2FEH,m-ITIC-OR-4Cl,-5.59,-3.59,-5.78,-4.05,0.667,CB,_,150.0,MoOx,ZnO,6.4,6.15,0.88,48.5,"[<rdkit.Chem.rdchem.Mol object at 0x7fdd1473d1c0>, <rdkit.Chem.rdchem.Mol object at 0x7fdd1473cd60>, <rdkit.Chem.rdchem.Mol object at 0x7fdd1473de70>, <rdkit.Chem.rdchem.Mol object at 0x7fdd1473eb20>, <rdkit.Chem.rdchem.Mol object at 0x7fdd1473e340>, <rdkit.Chem.rdchem.Mol object at 0x7fdd1473d2a0>, <rdkit.Chem.rdchem.Mol object at 0x7fdd1473f370>, <rdkit.Chem.rdchem.Mol object at 0x7fdd1473f6f0>]","[<rdkit.Chem.rdchem.Mol object at 0x7fdd1473f5a0>, <rdkit.Chem.rdchem.Mol object at 0x7fdd1473ea40>, <rdkit.Chem.rdchem.Mol object at 0x7fdd1473c9e0>, <rdkit.Chem.rdchem.Mol object at 0x7fdd1473d9a0>, <rdkit.Chem.rdchem.Mol object at 0x7fdd1473eab0>, <rdkit.Chem.rdchem.Mol object at 0x7fdd1473dcb0>]","[<rdkit.Chem.rdchem.Mol object at 0x7fdd1473d1c0>, <rdkit.Chem.rdchem.Mol object at 0x7fdd1473cd60>, <rdkit.Chem.rdchem.Mol object at 0x7fdd1473de70>, <rdkit.Chem.rdchem.Mol object at 0x7fdd1473eb20>, <rdkit.Chem.rdchem.Mol object at 0x7fdd1473e340>, <rdkit.Chem.rdchem.Mol object at 0x7fdd1473d2a0>, <rdkit.Chem.rdchem.Mol object at 0x7fdd1473f370>, <rdkit.Chem.rdchem.Mol object at 0x7fdd1473f6f0>, '.', <rdkit.Chem.rdchem.Mol object at 0x7fdd1473f5a0>, <rdkit.Chem.rdchem.Mol object at 0x7fdd1473ea40>, <rdkit.Chem.rdchem.Mol object at 0x7fdd1473c9e0>, <rdkit.Chem.rdchem.Mol object at 0x7fdd1473d9a0>, <rdkit.Chem.rdchem.Mol object at 0x7fdd1473eab0>, <rdkit.Chem.rdchem.Mol object at 0x7fdd1473dcb0>]","[0, 0, 3858, 3859, 3860, 3861, 3862, 3863, 3864, 3865, 1, 3866, 3867, 3868, 3869, 3870, 3871]"
PTB-EDOT,ITIC-Th,-5.33,-3.63,-5.673333333333334,-3.908888888888889,0.667,MeTHF,_,100.0,MoOx,ZnO,8.59,8.59,0.84,66.5,"[<rdkit.Chem.rdchem.Mol object at 0x7fdd1473e2d0>, <rdkit.Chem.rdchem.Mol object at 0x7fdd1473f840>, <rdkit.Chem.rdchem.Mol object at 0x7fdd1473cb30>, <rdkit.Chem.rdchem.Mol object at 0x7fdd1473daf0>, <rdkit.Chem.rdchem.Mol object at 0x7fdd1473f610>, <rdkit.Chem.rdchem.Mol object at 0x7fdd1473d930>, <rdkit.Chem.rdchem.Mol object at 0x7fdd1473d3f0>]","[<rdkit.Chem.rdchem.Mol object at 0x7fdd1473e490>, <rdkit.Chem.rdchem.Mol object at 0x7fdd1473f760>, <rdkit.Chem.rdchem.Mol object at 0x7fdd1473d150>, <rdkit.Chem.rdchem.Mol object at 0x7fdd1473d8c0>, <rdkit.Chem.rdchem.Mol object at 0x7fdd1473f300>]","[<rdkit.Chem.rdchem.Mol object at 0x7fdd1473e2d0>, <rdkit.Chem.rdchem.Mol object at 0x7fdd1473f840>, <rdkit.Chem.rdchem.Mol object at 0x7fdd1473cb30>, <rdkit.Chem.rdchem.Mol object at 0x7fdd1473daf0>, <rdkit.Chem.rdchem.Mol object at 0x7fdd1473f610>, <rdkit.Chem.rdchem.Mol object at 0x7fdd1473d930>, <rdkit.Chem.rdchem.Mol object at 0x7fdd1473d3f0>, '.', <rdkit.Chem.rdchem.Mol object at 0x7fdd1473e490>, <rdkit.Chem.rdchem.Mol object at 0x7fdd1473f760>, <rdkit.Chem.rdchem.Mol object at 0x7fdd1473d150>, <rdkit.Chem.rdchem.Mol object at 0x7fdd1473d8c0>, <rdkit.Chem.rdchem.Mol object at 0x7fdd1473f300>]","[0, 0, 0, 0, 3872, 3873, 3874, 3875, 3876, 3877, 3878, 1, 3879, 3880, 3881, 3882, 3883]"
PTB-EDOTS,ITIC-Th,-5.38,-3.69,-5.673333333333334,-3.908888888888889,0.667,MeTHF,_,100.0,MoOx,ZnO,10.18,10.18,0.88,71.2,"[<rdkit.Chem.rdchem.Mol object at 0x7fdd1473e180>, <rdkit.Chem.rdchem.Mol object at 0x7fdd1473ee30>, <rdkit.Chem.rdchem.Mol object at 0x7fdd1473c5f0>, <rdkit.Chem.rdchem.Mol object at 0x7fdd1473c200>, <rdkit.Chem.rdchem.Mol object at 0x7fdd1473dee0>, <rdkit.Chem.rdchem.Mol object at 0x7fdd1473d7e0>, <rdkit.Chem.rdchem.Mol object at 0x7fdd1473f8b0>]","[<rdkit.Chem.rdchem.Mol object at 0x7fdd1473f060>, <rdkit.Chem.rdchem.Mol object at 0x7fdd1473ef10>, <rdkit.Chem.rdchem.Mol object at 0x7fdd1473f990>, <rdkit.Chem.rdchem.Mol object at 0x7fdd1473c900>, <rdkit.Chem.rdchem.Mol object at 0x7fdd1473fd10>]","[<rdkit.Chem.rdchem.Mol object at 0x7fdd1473e180>, <rdkit.Chem.rdchem.Mol object at 0x7fdd1473ee30>, <rdkit.Chem.rdchem.Mol object at 0x7fdd1473c5f0>, <rdkit.Chem.rdchem.Mol object at 0x7fdd1473c200>, <rdkit.Chem.rdchem.Mol object at 0x7fdd1473dee0>, <rdkit.Chem.rdchem.Mol object at 0x7fdd1473d7e0>, <rdkit.Chem.rdchem.Mol object at 0x7fdd1473f8b0>, '.', <rdkit.Chem.rdchem.Mol object at 0x7fdd1473f060>, <rdkit.Chem.rdchem.Mol object at 0x7fdd1473ef10>, <rdkit.Chem.rdchem.Mol object at 0x7fdd1473f990>, <rdkit.Chem.rdchem.Mol object at 0x7fdd1473c900>, <rdkit.Chem.rdchem.Mol object at 0x7fdd1473fd10>]","[0, 0, 0, 0, 3884, 3885, 3886, 3887, 3888, 3889, 3890, 1, 3891, 3892, 3893, 3894, 3895]"
POPB,IT-4F,-5.38,-3.57,-5.66875,-4.060416666666667,0.667,CB,DIO,25.0,MoOx,ZnO,6.2,6.19,0.72,51.2,"[<rdkit.Chem.rdchem.Mol object at 0x7fdd1473fed0>, <rdkit.Chem.rdchem.Mol object at 0x7fdd1473fb50>, <rdkit.Chem.rdchem.Mol object at 0x7fdd1473dd90>, <rdkit.Chem.rdchem.Mol object at 0x7fdd1473d4d0>, <rdkit.Chem.rdchem.Mol object at 0x7fdd1473fa00>, <rdkit.Chem.rdchem.Mol object at 0x7fdd1473e110>, <rdkit.Chem.rdchem.Mol object at 0x7fdd1473da10>, <rdkit.Chem.rdchem.Mol object at 0x7fdd14744430>]","[<rdkit.Chem.rdchem.Mol object at 0x7fdd1473cf20>, <rdkit.Chem.rdchem.Mol object at 0x7fdd1473fca0>, <rdkit.Chem.rdchem.Mol object at 0x7fdd1473f7d0>, <rdkit.Chem.rdchem.Mol object at 0x7fdd1473d850>, <rdkit.Chem.rdchem.Mol object at 0x7fdd147444a0>]","[<rdkit.Chem.rdchem.Mol object at 0x7fdd1473fed0>, <rdkit.Chem.rdchem.Mol object at 0x7fdd1473fb50>, <rdkit.Chem.rdchem.Mol object at 0x7fdd1473dd90>, <rdkit.Chem.rdchem.Mol object at 0x7fdd1473d4d0>, <rdkit.Chem.rdchem.Mol object at 0x7fdd1473fa00>, <rdkit.Chem.rdchem.Mol object at 0x7fdd1473e110>, <rdkit.Chem.rdchem.Mol object at 0x7fdd1473da10>, <rdkit.Chem.rdchem.Mol object at 0x7fdd14744430>, '.', <rdkit.Chem.rdchem.Mol object at 0x7fdd1473cf20>, <rdkit.Chem.rdchem.Mol object at 0x7fdd1473fca0>, <rdkit.Chem.rdchem.Mol object at 0x7fdd1473f7d0>, <rdkit.Chem.rdchem.Mol object at 0x7fdd1473d850>, <rdkit.Chem.rdchem.Mol object at 0x7fdd147444a0>]","[0, 0, 0, 3896, 3897, 3898, 3899, 3900, 3901, 3902, 3903, 1, 3904, 3905, 3906, 3907, 3908]"
PFOPB,IT-4F,-5.5,-3.64,-5.66875,-4.060416666666667,0.667,CB,DIO,25.0,MoOx,ZnO,11.7,11.71,0.89,64.5,"[<rdkit.Chem.rdchem.Mol object at 0x7fdd1473fdf0>, <rdkit.Chem.rdchem.Mol object at 0x7fdd1473fe60>, <rdkit.Chem.rdchem.Mol object at 0x7fdd1473f3e0>, <rdkit.Chem.rdchem.Mol object at 0x7fdd14744120>, <rdkit.Chem.rdchem.Mol object at 0x7fdd1473ff40>, <rdkit.Chem.rdchem.Mol object at 0x7fdd147443c0>, <rdkit.Chem.rdchem.Mol object at 0x7fdd14744350>, <rdkit.Chem.rdchem.Mol object at 0x7fdd14744970>]","[<rdkit.Chem.rdchem.Mol object at 0x7fdd1473f920>, <rdkit.Chem.rdchem.Mol object at 0x7fdd14744820>, <rdkit.Chem.rdchem.Mol object at 0x7fdd1473fbc0>, <rdkit.Chem.rdchem.Mol object at 0x7fdd1473c7b0>, <rdkit.Chem.rdchem.Mol object at 0x7fdd14744a50>]","[<rdkit.Chem.rdchem.Mol object at 0x7fdd1473fdf0>, <rdkit.Chem.rdchem.Mol object at 0x7fdd1473fe60>, <rdkit.Chem.rdchem.Mol object at 0x7fdd1473f3e0>, <rdkit.Chem.rdchem.Mol object at 0x7fdd14744120>, <rdkit.Chem.rdchem.Mol object at 0x7fdd1473ff40>, <rdkit.Chem.rdchem.Mol object at 0x7fdd147443c0>, <rdkit.Chem.rdchem.Mol object at 0x7fdd14744350>, <rdkit.Chem.rdchem.Mol object at 0x7fdd14744970>, '.', <rdkit.Chem.rdchem.Mol object at 0x7fdd1473f920>, <rdkit.Chem.rdchem.Mol object at 0x7fdd14744820>, <rdkit.Chem.rdchem.Mol object at 0x7fdd1473fbc0>, <rdkit.Chem.rdchem.Mol object at 0x7fdd1473c7b0>, <rdkit.Chem.rdchem.Mol object at 0x7fdd14744a50>]","[0, 0, 0, 3909, 3910, 3911, 3912, 3913, 3914, 3915, 3916, 1, 3917, 3918, 3919, 3920, 3921]"
P3HT,BIBT-NI,-5.057777777777777,-2.989444444444445,-5.62,-3.65,0.833,o-DCB,_,110.0,MoOx,ZnO,2.1,2.09,0.77,44.2,"[<rdkit.Chem.rdchem.Mol object at 0x7fdd1473e3b0>, <rdkit.Chem.rdchem.Mol object at 0x7fdd1473fae0>, <rdkit.Chem.rdchem.Mol object at 0x7fdd14744f20>, <rdkit.Chem.rdchem.Mol object at 0x7fdd14744040>]","[<rdkit.Chem.rdchem.Mol object at 0x7fdd1473fa70>, <rdkit.Chem.rdchem.Mol object at 0x7fdd1473fd80>, <rdkit.Chem.rdchem.Mol object at 0x7fdd1473d5b0>, <rdkit.Chem.rdchem.Mol object at 0x7fdd14744cf0>]","[<rdkit.Chem.rdchem.Mol object at 0x7fdd1473e3b0>, <rdkit.Chem.rdchem.Mol object at 0x7fdd1473fae0>, <rdkit.Chem.rdchem.Mol object at 0x7fdd14744f20>, <rdkit.Chem.rdchem.Mol object at 0x7fdd14744040>, '.', <rdkit.Chem.rdchem.Mol object at 0x7fdd1473fa70>, <rdkit.Chem.rdchem.Mol object at 0x7fdd1473fd80>, <rdkit.Chem.rdchem.Mol object at 0x7fdd1473d5b0>, <rdkit.Chem.rdchem.Mol object at 0x7fdd14744cf0>]","[0, 0, 0, 0, 0, 0, 0, 0, 3922, 3923, 3924, 3925, 1, 3926, 3927, 3928, 3929]"
PBDT-F-2TC,IT-4F,-5.55,-3.58,-5.66875,-4.060416666666667,1.0,CB,_,110.0,PEDOT:PSS,PFN-Br,10.75,10.75,0.91,62.51,"[<rdkit.Chem.rdchem.Mol object at 0x7fdd1473ed50>, <rdkit.Chem.rdchem.Mol object at 0x7fdd1473e260>, <rdkit.Chem.rdchem.Mol object at 0x7fdd1473cdd0>, <rdkit.Chem.rdchem.Mol object at 0x7fdd14744eb0>, <rdkit.Chem.rdchem.Mol object at 0x7fdd147440b0>, <rdkit.Chem.rdchem.Mol object at 0x7fdd147450e0>, <rdkit.Chem.rdchem.Mol object at 0x7fdd14744660>, <rdkit.Chem.rdchem.Mol object at 0x7fdd147451c0>]","[<rdkit.Chem.rdchem.Mol object at 0x7fdd14744510>, <rdkit.Chem.rdchem.Mol object at 0x7fdd14744dd0>, <rdkit.Chem.rdchem.Mol object at 0x7fdd14744900>, <rdkit.Chem.rdchem.Mol object at 0x7fdd147449e0>, <rdkit.Chem.rdchem.Mol object at 0x7fdd147453f0>]","[<rdkit.Chem.rdchem.Mol object at 0x7fdd1473ed50>, <rdkit.Chem.rdchem.Mol object at 0x7fdd1473e260>, <rdkit.Chem.rdchem.Mol object at 0x7fdd1473cdd0>, <rdkit.Chem.rdchem.Mol object at 0x7fdd14744eb0>, <rdkit.Chem.rdchem.Mol object at 0x7fdd147440b0>, <rdkit.Chem.rdchem.Mol object at 0x7fdd147450e0>, <rdkit.Chem.rdchem.Mol object at 0x7fdd14744660>, <rdkit.Chem.rdchem.Mol object at 0x7fdd147451c0>, '.', <rdkit.Chem.rdchem.Mol object at 0x7fdd14744510>, <rdkit.Chem.rdchem.Mol object at 0x7fdd14744dd0>, <rdkit.Chem.rdchem.Mol object at 0x7fdd14744900>, <rdkit.Chem.rdchem.Mol object at 0x7fdd147449e0>, <rdkit.Chem.rdchem.Mol object at 0x7fdd147453f0>]","[0, 0, 0, 3930, 3931, 3932, 3933, 3934, 3935, 3936, 3937, 1, 3938, 3939, 3940, 3941, 3942]"
PBDT-SF-2TC,IT-4F,-5.57,-3.59,-5.66875,-4.060416666666667,1.0,CB,_,110.0,PEDOT:PSS,PFN-Br,11.07,11.08,0.93,57.45,"[<rdkit.Chem.rdchem.Mol object at 0x7fdd14744740>, <rdkit.Chem.rdchem.Mol object at 0x7fdd1473fc30>, <rdkit.Chem.rdchem.Mol object at 0x7fdd147455b0>, <rdkit.Chem.rdchem.Mol object at 0x7fdd14744200>, <rdkit.Chem.rdchem.Mol object at 0x7fdd14745310>, <rdkit.Chem.rdchem.Mol object at 0x7fdd14744190>, <rdkit.Chem.rdchem.Mol object at 0x7fdd14745150>, <rdkit.Chem.rdchem.Mol object at 0x7fdd14744c80>, <rdkit.Chem.rdchem.Mol object at 0x7fdd147459a0>]","[<rdkit.Chem.rdchem.Mol object at 0x7fdd147458c0>, <rdkit.Chem.rdchem.Mol object at 0x7fdd14744d60>, <rdkit.Chem.rdchem.Mol object at 0x7fdd147454d0>, <rdkit.Chem.rdchem.Mol object at 0x7fdd14744b30>, <rdkit.Chem.rdchem.Mol object at 0x7fdd14745540>]","[<rdkit.Chem.rdchem.Mol object at 0x7fdd14744740>, <rdkit.Chem.rdchem.Mol object at 0x7fdd1473fc30>, <rdkit.Chem.rdchem.Mol object at 0x7fdd147455b0>, <rdkit.Chem.rdchem.Mol object at 0x7fdd14744200>, <rdkit.Chem.rdchem.Mol object at 0x7fdd14745310>, <rdkit.Chem.rdchem.Mol object at 0x7fdd14744190>, <rdkit.Chem.rdchem.Mol object at 0x7fdd14745150>, <rdkit.Chem.rdchem.Mol object at 0x7fdd14744c80>, <rdkit.Chem.rdchem.Mol object at 0x7fdd147459a0>, '.', <rdkit.Chem.rdchem.Mol object at 0x7fdd147458c0>, <rdkit.Chem.rdchem.Mol object at 0x7fdd14744d60>, <rdkit.Chem.rdchem.Mol object at 0x7fdd147454d0>, <rdkit.Chem.rdchem.Mol object at 0x7fdd14744b30>, <rdkit.Chem.rdchem.Mol object at 0x7fdd14745540>]","[0, 0, 3943, 3944, 3945, 3946, 3947, 3948, 3949, 3950, 3951, 1, 3952, 3953, 3954, 3955, 3956]"
PDBT-F,IT-M,-5.39,-3.57,-5.513571428571429,-3.808,1.0,CF,DIO,100.0,PEDOT:PSS,PFN-Br,10.52,10.52,0.97,63.71,"[<rdkit.Chem.rdchem.Mol object at 0x7fdd1473ce40>, <rdkit.Chem.rdchem.Mol object at 0x7fdd147457e0>, <rdkit.Chem.rdchem.Mol object at 0x7fdd147442e0>, <rdkit.Chem.rdchem.Mol object at 0x7fdd14745380>, <rdkit.Chem.rdchem.Mol object at 0x7fdd14745e00>, <rdkit.Chem.rdchem.Mol object at 0x7fdd14746570>]","[<rdkit.Chem.rdchem.Mol object at 0x7fdd147452a0>, <rdkit.Chem.rdchem.Mol object at 0x7fdd14744890>, <rdkit.Chem.rdchem.Mol object at 0x7fdd14744ba0>, <rdkit.Chem.rdchem.Mol object at 0x7fdd14745930>, <rdkit.Chem.rdchem.Mol object at 0x7fdd14745770>]","[<rdkit.Chem.rdchem.Mol object at 0x7fdd1473ce40>, <rdkit.Chem.rdchem.Mol object at 0x7fdd147457e0>, <rdkit.Chem.rdchem.Mol object at 0x7fdd147442e0>, <rdkit.Chem.rdchem.Mol object at 0x7fdd14745380>, <rdkit.Chem.rdchem.Mol object at 0x7fdd14745e00>, <rdkit.Chem.rdchem.Mol object at 0x7fdd14746570>, '.', <rdkit.Chem.rdchem.Mol object at 0x7fdd147452a0>, <rdkit.Chem.rdchem.Mol object at 0x7fdd14744890>, <rdkit.Chem.rdchem.Mol object at 0x7fdd14744ba0>, <rdkit.Chem.rdchem.Mol object at 0x7fdd14745930>, <rdkit.Chem.rdchem.Mol object at 0x7fdd14745770>]","[0, 0, 0, 0, 0, 3957, 3958, 3959, 3960, 3961, 3962, 1, 3963, 3964, 3965, 3966, 3967]"