Donor,Acceptor,HOMO_D_eV,LUMO_D_eV,HOMO_A_eV,LUMO_A_eV,D_A_ratio_m_m,solvent,solvent_additive,annealing_temperature,hole_contact_layer,electron_contact_layer,PCE_percent,calc_PCE_percent,Voc_V,FF_percent,Donor_BRICS,Acceptor_BRICS,DA_pair_BRICS,DA_tokenized_BRICS
PBDB-T,ITBTR-C6,-5.297714285714285,-3.4170000000000003,-5.3,-3.71,1.0,CB,DIO,25.0,MoOx,ZnO,8.18,8.09,0.89,57.83,"[<rdkit.Chem.rdchem.Mol object at 0x7fdd1477adc0>, <rdkit.Chem.rdchem.Mol object at 0x7fdd1477b4c0>, <rdkit.Chem.rdchem.Mol object at 0x7fdd14779930>, <rdkit.Chem.rdchem.Mol object at 0x7fdd14778740>, <rdkit.Chem.rdchem.Mol object at 0x7fdd1477b840>]","[<rdkit.Chem.rdchem.Mol object at 0x7fdd1477b530>, <rdkit.Chem.rdchem.Mol object at 0x7fdd1477b610>, <rdkit.Chem.rdchem.Mol object at 0x7fdd1477b220>]","[<rdkit.Chem.rdchem.Mol object at 0x7fdd1477adc0>, <rdkit.Chem.rdchem.Mol object at 0x7fdd1477b4c0>, <rdkit.Chem.rdchem.Mol object at 0x7fdd14779930>, <rdkit.Chem.rdchem.Mol object at 0x7fdd14778740>, <rdkit.Chem.rdchem.Mol object at 0x7fdd1477b840>, '.', <rdkit.Chem.rdchem.Mol object at 0x7fdd1477b530>, <rdkit.Chem.rdchem.Mol object at 0x7fdd1477b610>, <rdkit.Chem.rdchem.Mol object at 0x7fdd1477b220>]","[0, 0, 0, 0, 0, 0, 0, 0, 4685, 4686, 4687, 4688, 4689, 1, 4690, 4691, 4692]"
PBDB-T,ITBTR-C8,-5.297714285714285,-3.4170000000000003,-5.28,-3.7,1.0,CB,DIO,25.0,MoOx,ZnO,7.85,7.76,0.9,58.47,"[<rdkit.Chem.rdchem.Mol object at 0x7fdd14779fc0>, <rdkit.Chem.rdchem.Mol object at 0x7fdd1477b8b0>, <rdkit.Chem.rdchem.Mol object at 0x7fdd1477a340>, <rdkit.Chem.rdchem.Mol object at 0x7fdd14778f20>, <rdkit.Chem.rdchem.Mol object at 0x7fdd147783c0>]","[<rdkit.Chem.rdchem.Mol object at 0x7fdd1477bf40>, <rdkit.Chem.rdchem.Mol object at 0x7fdd1477ba00>, <rdkit.Chem.rdchem.Mol object at 0x7fdd1477bae0>, <rdkit.Chem.rdchem.Mol object at 0x7fdd14779700>]","[<rdkit.Chem.rdchem.Mol object at 0x7fdd14779fc0>, <rdkit.Chem.rdchem.Mol object at 0x7fdd1477b8b0>, <rdkit.Chem.rdchem.Mol object at 0x7fdd1477a340>, <rdkit.Chem.rdchem.Mol object at 0x7fdd14778f20>, <rdkit.Chem.rdchem.Mol object at 0x7fdd147783c0>, '.', <rdkit.Chem.rdchem.Mol object at 0x7fdd1477bf40>, <rdkit.Chem.rdchem.Mol object at 0x7fdd1477ba00>, <rdkit.Chem.rdchem.Mol object at 0x7fdd1477bae0>, <rdkit.Chem.rdchem.Mol object at 0x7fdd14779700>]","[0, 0, 0, 0, 0, 0, 0, 4693, 4694, 4695, 4696, 4697, 1, 4698, 4699, 4700, 4701]"
PBDB-T2Cl,IDIC-4H,-5.510000000000001,-3.57,-5.7,-3.87,1.0,CB,DIO,25.0,MoOx,ZnO,4.57,4.58,0.98,45.3,"[<rdkit.Chem.rdchem.Mol object at 0x7fdd147798c0>, <rdkit.Chem.rdchem.Mol object at 0x7fdd1477bdf0>, <rdkit.Chem.rdchem.Mol object at 0x7fdd1477ad50>, <rdkit.Chem.rdchem.Mol object at 0x7fdd14779bd0>, <rdkit.Chem.rdchem.Mol object at 0x7fdd14778190>, <rdkit.Chem.rdchem.Mol object at 0x7fdd14779540>]","[<rdkit.Chem.rdchem.Mol object at 0x7fdd1477bca0>, <rdkit.Chem.rdchem.Mol object at 0x7fdd1477b6f0>, <rdkit.Chem.rdchem.Mol object at 0x7fdd1477a9d0>, <rdkit.Chem.rdchem.Mol object at 0x7fdd1477a1f0>, <rdkit.Chem.rdchem.Mol object at 0x7fdd14778270>]","[<rdkit.Chem.rdchem.Mol object at 0x7fdd147798c0>, <rdkit.Chem.rdchem.Mol object at 0x7fdd1477bdf0>, <rdkit.Chem.rdchem.Mol object at 0x7fdd1477ad50>, <rdkit.Chem.rdchem.Mol object at 0x7fdd14779bd0>, <rdkit.Chem.rdchem.Mol object at 0x7fdd14778190>, <rdkit.Chem.rdchem.Mol object at 0x7fdd14779540>, '.', <rdkit.Chem.rdchem.Mol object at 0x7fdd1477bca0>, <rdkit.Chem.rdchem.Mol object at 0x7fdd1477b6f0>, <rdkit.Chem.rdchem.Mol object at 0x7fdd1477a9d0>, <rdkit.Chem.rdchem.Mol object at 0x7fdd1477a1f0>, <rdkit.Chem.rdchem.Mol object at 0x7fdd14778270>]","[0, 0, 0, 0, 0, 4702, 4703, 4704, 4705, 4706, 4707, 1, 4708, 4709, 4710, 4711, 4712]"
PBDB-T2Cl,IDIC-4F,-5.510000000000001,-3.57,-5.73,-3.93,1.0,CB,DIO,25.0,MoOx,ZnO,7.1,7.08,0.88,61.91,"[<rdkit.Chem.rdchem.Mol object at 0x7fdd1477b760>, <rdkit.Chem.rdchem.Mol object at 0x7fdd1477a810>, <rdkit.Chem.rdchem.Mol object at 0x7fdd1477af80>, <rdkit.Chem.rdchem.Mol object at 0x7fdd1477a960>, <rdkit.Chem.rdchem.Mol object at 0x7fdd1477bb50>, <rdkit.Chem.rdchem.Mol object at 0x7fdd14788430>]","[<rdkit.Chem.rdchem.Mol object at 0x7fdd1477ba70>, <rdkit.Chem.rdchem.Mol object at 0x7fdd1477b300>, <rdkit.Chem.rdchem.Mol object at 0x7fdd1477b140>, <rdkit.Chem.rdchem.Mol object at 0x7fdd1477b450>, <rdkit.Chem.rdchem.Mol object at 0x7fdd14779d90>]","[<rdkit.Chem.rdchem.Mol object at 0x7fdd1477b760>, <rdkit.Chem.rdchem.Mol object at 0x7fdd1477a810>, <rdkit.Chem.rdchem.Mol object at 0x7fdd1477af80>, <rdkit.Chem.rdchem.Mol object at 0x7fdd1477a960>, <rdkit.Chem.rdchem.Mol object at 0x7fdd1477bb50>, <rdkit.Chem.rdchem.Mol object at 0x7fdd14788430>, '.', <rdkit.Chem.rdchem.Mol object at 0x7fdd1477ba70>, <rdkit.Chem.rdchem.Mol object at 0x7fdd1477b300>, <rdkit.Chem.rdchem.Mol object at 0x7fdd1477b140>, <rdkit.Chem.rdchem.Mol object at 0x7fdd1477b450>, <rdkit.Chem.rdchem.Mol object at 0x7fdd14779d90>]","[0, 0, 0, 0, 0, 4713, 4714, 4715, 4716, 4717, 4718, 1, 4719, 4720, 4721, 4722, 4723]"
PBDB-T2Cl,IDIC-4Cl,-5.510000000000001,-3.57,-5.78,-4.02,1.0,CB,DIO,25.0,MoOx,ZnO,9.24,9.24,0.83,68.69,"[<rdkit.Chem.rdchem.Mol object at 0x7fdd1477b920>, <rdkit.Chem.rdchem.Mol object at 0x7fdd14779690>, <rdkit.Chem.rdchem.Mol object at 0x7fdd1477ae30>, <rdkit.Chem.rdchem.Mol object at 0x7fdd147884a0>, <rdkit.Chem.rdchem.Mol object at 0x7fdd147787b0>, <rdkit.Chem.rdchem.Mol object at 0x7fdd14788040>]","[<rdkit.Chem.rdchem.Mol object at 0x7fdd14778dd0>, <rdkit.Chem.rdchem.Mol object at 0x7fdd1477b5a0>, <rdkit.Chem.rdchem.Mol object at 0x7fdd1477af10>, <rdkit.Chem.rdchem.Mol object at 0x7fdd14778d60>, <rdkit.Chem.rdchem.Mol object at 0x7fdd14788510>]","[<rdkit.Chem.rdchem.Mol object at 0x7fdd1477b920>, <rdkit.Chem.rdchem.Mol object at 0x7fdd14779690>, <rdkit.Chem.rdchem.Mol object at 0x7fdd1477ae30>, <rdkit.Chem.rdchem.Mol object at 0x7fdd147884a0>, <rdkit.Chem.rdchem.Mol object at 0x7fdd147787b0>, <rdkit.Chem.rdchem.Mol object at 0x7fdd14788040>, '.', <rdkit.Chem.rdchem.Mol object at 0x7fdd14778dd0>, <rdkit.Chem.rdchem.Mol object at 0x7fdd1477b5a0>, <rdkit.Chem.rdchem.Mol object at 0x7fdd1477af10>, <rdkit.Chem.rdchem.Mol object at 0x7fdd14778d60>, <rdkit.Chem.rdchem.Mol object at 0x7fdd14788510>]","[0, 0, 0, 0, 0, 4724, 4725, 4726, 4727, 4728, 4729, 1, 4730, 4731, 4732, 4733, 4734]"
PBDB-T,IT-M,-5.297714285714285,-3.4170000000000003,-5.513571428571429,-3.808,1.0,CB,_,100.0,PEDOT:PSS,PFN-Br,11.74,11.72,0.95,72.0,"[<rdkit.Chem.rdchem.Mol object at 0x7fdd14779770>, <rdkit.Chem.rdchem.Mol object at 0x7fdd147882e0>, <rdkit.Chem.rdchem.Mol object at 0x7fdd14788a50>, <rdkit.Chem.rdchem.Mol object at 0x7fdd147880b0>, <rdkit.Chem.rdchem.Mol object at 0x7fdd147891c0>]","[<rdkit.Chem.rdchem.Mol object at 0x7fdd14779a80>, <rdkit.Chem.rdchem.Mol object at 0x7fdd14788660>, <rdkit.Chem.rdchem.Mol object at 0x7fdd1477bbc0>, <rdkit.Chem.rdchem.Mol object at 0x7fdd1477bed0>, <rdkit.Chem.rdchem.Mol object at 0x7fdd14788cf0>]","[<rdkit.Chem.rdchem.Mol object at 0x7fdd14779770>, <rdkit.Chem.rdchem.Mol object at 0x7fdd147882e0>, <rdkit.Chem.rdchem.Mol object at 0x7fdd14788a50>, <rdkit.Chem.rdchem.Mol object at 0x7fdd147880b0>, <rdkit.Chem.rdchem.Mol object at 0x7fdd147891c0>, '.', <rdkit.Chem.rdchem.Mol object at 0x7fdd14779a80>, <rdkit.Chem.rdchem.Mol object at 0x7fdd14788660>, <rdkit.Chem.rdchem.Mol object at 0x7fdd1477bbc0>, <rdkit.Chem.rdchem.Mol object at 0x7fdd1477bed0>, <rdkit.Chem.rdchem.Mol object at 0x7fdd14788cf0>]","[0, 0, 0, 0, 0, 0, 4735, 4736, 4737, 4738, 4739, 1, 4740, 4741, 4742, 4743, 4744]"
PBDB-T,IDT-O-IC,-5.297714285714285,-3.4170000000000003,-5.77,-3.79,0.833,o-DCB,_,25.0,MoOx,ZnO,6.23,6.22,0.84,63.0,"[<rdkit.Chem.rdchem.Mol object at 0x7fdd1477bd10>, <rdkit.Chem.rdchem.Mol object at 0x7fdd1478a500>, <rdkit.Chem.rdchem.Mol object at 0x7fdd147892a0>, <rdkit.Chem.rdchem.Mol object at 0x7fdd1478ad50>, <rdkit.Chem.rdchem.Mol object at 0x7fdd1478b760>]","[<rdkit.Chem.rdchem.Mol object at 0x7fdd1478b060>, <rdkit.Chem.rdchem.Mol object at 0x7fdd1478b990>, <rdkit.Chem.rdchem.Mol object at 0x7fdd147890e0>, <rdkit.Chem.rdchem.Mol object at 0x7fdd14789ee0>, <rdkit.Chem.rdchem.Mol object at 0x7fdd1478a9d0>, <rdkit.Chem.rdchem.Mol object at 0x7fdd1478a730>]","[<rdkit.Chem.rdchem.Mol object at 0x7fdd1477bd10>, <rdkit.Chem.rdchem.Mol object at 0x7fdd1478a500>, <rdkit.Chem.rdchem.Mol object at 0x7fdd147892a0>, <rdkit.Chem.rdchem.Mol object at 0x7fdd1478ad50>, <rdkit.Chem.rdchem.Mol object at 0x7fdd1478b760>, '.', <rdkit.Chem.rdchem.Mol object at 0x7fdd1478b060>, <rdkit.Chem.rdchem.Mol object at 0x7fdd1478b990>, <rdkit.Chem.rdchem.Mol object at 0x7fdd147890e0>, <rdkit.Chem.rdchem.Mol object at 0x7fdd14789ee0>, <rdkit.Chem.rdchem.Mol object at 0x7fdd1478a9d0>, <rdkit.Chem.rdchem.Mol object at 0x7fdd1478a730>]","[0, 0, 0, 0, 0, 4818, 4819, 4820, 4821, 4822, 1, 4823, 4824, 4825, 4826, 4827, 4828]"
PBDB-T,spiro-IDT-O-IC,-5.297714285714285,-3.4170000000000003,-5.68,-3.79,0.556,o-DCB,_,25.0,MoOx,ZnO,4.74,4.71,0.83,55.0,"[<rdkit.Chem.rdchem.Mol object at 0x7fdd1478aa40>, <rdkit.Chem.rdchem.Mol object at 0x7fdd1478a340>, <rdkit.Chem.rdchem.Mol object at 0x7fdd14788740>, <rdkit.Chem.rdchem.Mol object at 0x7fdd1478b5a0>, <rdkit.Chem.rdchem.Mol object at 0x7fdd1478bca0>]","[<rdkit.Chem.rdchem.Mol object at 0x7fdd1478aab0>, <rdkit.Chem.rdchem.Mol object at 0x7fdd1478bed0>, <rdkit.Chem.rdchem.Mol object at 0x7fdd1478a490>, <rdkit.Chem.rdchem.Mol object at 0x7fdd1478b1b0>, <rdkit.Chem.rdchem.Mol object at 0x7fdd1478a7a0>, <rdkit.Chem.rdchem.Mol object at 0x7fdd1478ae30>]","[<rdkit.Chem.rdchem.Mol object at 0x7fdd1478aa40>, <rdkit.Chem.rdchem.Mol object at 0x7fdd1478a340>, <rdkit.Chem.rdchem.Mol object at 0x7fdd14788740>, <rdkit.Chem.rdchem.Mol object at 0x7fdd1478b5a0>, <rdkit.Chem.rdchem.Mol object at 0x7fdd1478bca0>, '.', <rdkit.Chem.rdchem.Mol object at 0x7fdd1478aab0>, <rdkit.Chem.rdchem.Mol object at 0x7fdd1478bed0>, <rdkit.Chem.rdchem.Mol object at 0x7fdd1478a490>, <rdkit.Chem.rdchem.Mol object at 0x7fdd1478b1b0>, <rdkit.Chem.rdchem.Mol object at 0x7fdd1478a7a0>, <rdkit.Chem.rdchem.Mol object at 0x7fdd1478ae30>]","[0, 0, 0, 0, 0, 4829, 4830, 4831, 4832, 4833, 1, 4834, 4835, 4836, 4837, 4838, 4839]"
PBDB-T,ICBF-O,-5.297714285714285,-3.4170000000000003,-5.7,-3.75,1.0,CB,_,25.0,PEDOT:PSS,PDINO,3.11,3.08,1.06,42.6,"[<rdkit.Chem.rdchem.Mol object at 0x7fdd1478a570>, <rdkit.Chem.rdchem.Mol object at 0x7fdd1478af80>, <rdkit.Chem.rdchem.Mol object at 0x7fdd1478b290>, <rdkit.Chem.rdchem.Mol object at 0x7fdd1478bf40>, <rdkit.Chem.rdchem.Mol object at 0x7fdd14790120>]","[<rdkit.Chem.rdchem.Mol object at 0x7fdd1478aff0>, <rdkit.Chem.rdchem.Mol object at 0x7fdd14788900>, <rdkit.Chem.rdchem.Mol object at 0x7fdd14788b30>, <rdkit.Chem.rdchem.Mol object at 0x7fdd1478b530>, <rdkit.Chem.rdchem.Mol object at 0x7fdd1478b4c0>, <rdkit.Chem.rdchem.Mol object at 0x7fdd14788e40>]","[<rdkit.Chem.rdchem.Mol object at 0x7fdd1478a570>, <rdkit.Chem.rdchem.Mol object at 0x7fdd1478af80>, <rdkit.Chem.rdchem.Mol object at 0x7fdd1478b290>, <rdkit.Chem.rdchem.Mol object at 0x7fdd1478bf40>, <rdkit.Chem.rdchem.Mol object at 0x7fdd14790120>, '.', <rdkit.Chem.rdchem.Mol object at 0x7fdd1478aff0>, <rdkit.Chem.rdchem.Mol object at 0x7fdd14788900>, <rdkit.Chem.rdchem.Mol object at 0x7fdd14788b30>, <rdkit.Chem.rdchem.Mol object at 0x7fdd1478b530>, <rdkit.Chem.rdchem.Mol object at 0x7fdd1478b4c0>, <rdkit.Chem.rdchem.Mol object at 0x7fdd14788e40>]","[0, 0, 0, 0, 0, 4840, 4841, 4842, 4843, 4844, 1, 4845, 4846, 4847, 4848, 4849, 4850]"
PBDB-T,ICBF,-5.297714285714285,-3.4170000000000003,-5.64,-3.8,1.0,CB,_,25.0,PEDOT:PSS,PDINO,6.07,6.13,0.99,60.1,"[<rdkit.Chem.rdchem.Mol object at 0x7fdd1478b7d0>, <rdkit.Chem.rdchem.Mol object at 0x7fdd1478bae0>, <rdkit.Chem.rdchem.Mol object at 0x7fdd1478ac70>, <rdkit.Chem.rdchem.Mol object at 0x7fdd14789d20>, <rdkit.Chem.rdchem.Mol object at 0x7fdd14790430>]","[<rdkit.Chem.rdchem.Mol object at 0x7fdd1478b920>, <rdkit.Chem.rdchem.Mol object at 0x7fdd1478b140>, <rdkit.Chem.rdchem.Mol object at 0x7fdd14789d90>, <rdkit.Chem.rdchem.Mol object at 0x7fdd1478ab90>, <rdkit.Chem.rdchem.Mol object at 0x7fdd1478b220>]","[<rdkit.Chem.rdchem.Mol object at 0x7fdd1478b7d0>, <rdkit.Chem.rdchem.Mol object at 0x7fdd1478bae0>, <rdkit.Chem.rdchem.Mol object at 0x7fdd1478ac70>, <rdkit.Chem.rdchem.Mol object at 0x7fdd14789d20>, <rdkit.Chem.rdchem.Mol object at 0x7fdd14790430>, '.', <rdkit.Chem.rdchem.Mol object at 0x7fdd1478b920>, <rdkit.Chem.rdchem.Mol object at 0x7fdd1478b140>, <rdkit.Chem.rdchem.Mol object at 0x7fdd14789d90>, <rdkit.Chem.rdchem.Mol object at 0x7fdd1478ab90>, <rdkit.Chem.rdchem.Mol object at 0x7fdd1478b220>]","[0, 0, 0, 0, 0, 0, 4851, 4852, 4853, 4854, 4855, 1, 4856, 4857, 4858, 4859, 4860]"
PBDB-T,FICBF-O,-5.297714285714285,-3.4170000000000003,-5.72,-3.85,1.0,CB,_,25.0,PEDOT:PSS,PDINO,5.54,5.54,0.96,54.5,"[<rdkit.Chem.rdchem.Mol object at 0x7fdd1478b8b0>, <rdkit.Chem.rdchem.Mol object at 0x7fdd1478ba00>, <rdkit.Chem.rdchem.Mol object at 0x7fdd1478b3e0>, <rdkit.Chem.rdchem.Mol object at 0x7fdd1478be60>, <rdkit.Chem.rdchem.Mol object at 0x7fdd14790740>]","[<rdkit.Chem.rdchem.Mol object at 0x7fdd1478a960>, <rdkit.Chem.rdchem.Mol object at 0x7fdd1478adc0>, <rdkit.Chem.rdchem.Mol object at 0x7fdd1478bb50>, <rdkit.Chem.rdchem.Mol object at 0x7fdd1478a2d0>, <rdkit.Chem.rdchem.Mol object at 0x7fdd1478ace0>, <rdkit.Chem.rdchem.Mol object at 0x7fdd1478bbc0>]","[<rdkit.Chem.rdchem.Mol object at 0x7fdd1478b8b0>, <rdkit.Chem.rdchem.Mol object at 0x7fdd1478ba00>, <rdkit.Chem.rdchem.Mol object at 0x7fdd1478b3e0>, <rdkit.Chem.rdchem.Mol object at 0x7fdd1478be60>, <rdkit.Chem.rdchem.Mol object at 0x7fdd14790740>, '.', <rdkit.Chem.rdchem.Mol object at 0x7fdd1478a960>, <rdkit.Chem.rdchem.Mol object at 0x7fdd1478adc0>, <rdkit.Chem.rdchem.Mol object at 0x7fdd1478bb50>, <rdkit.Chem.rdchem.Mol object at 0x7fdd1478a2d0>, <rdkit.Chem.rdchem.Mol object at 0x7fdd1478ace0>, <rdkit.Chem.rdchem.Mol object at 0x7fdd1478bbc0>]","[0, 0, 0, 0, 0, 4861, 4862, 4863, 4864, 4865, 1, 4866, 4867, 4868, 4869, 4870, 4871]"
PBDB-T,FICBF,-5.297714285714285,-3.4170000000000003,-5.66,-3.88,1.0,CB,_,80.0,PEDOT:PSS,PDINO,7.41,7.41,0.87,67.0,"[<rdkit.Chem.rdchem.Mol object at 0x7fdd1478af10>, <rdkit.Chem.rdchem.Mol object at 0x7fdd14790e40>, <rdkit.Chem.rdchem.Mol object at 0x7fdd14790820>, <rdkit.Chem.rdchem.Mol object at 0x7fdd147902e0>, <rdkit.Chem.rdchem.Mol object at 0x7fdd147911c0>]","[<rdkit.Chem.rdchem.Mol object at 0x7fdd1478bdf0>, <rdkit.Chem.rdchem.Mol object at 0x7fdd14790580>, <rdkit.Chem.rdchem.Mol object at 0x7fdd1478bd10>, <rdkit.Chem.rdchem.Mol object at 0x7fdd1478b450>, <rdkit.Chem.rdchem.Mol object at 0x7fdd1478bd80>]","[<rdkit.Chem.rdchem.Mol object at 0x7fdd1478af10>, <rdkit.Chem.rdchem.Mol object at 0x7fdd14790e40>, <rdkit.Chem.rdchem.Mol object at 0x7fdd14790820>, <rdkit.Chem.rdchem.Mol object at 0x7fdd147902e0>, <rdkit.Chem.rdchem.Mol object at 0x7fdd147911c0>, '.', <rdkit.Chem.rdchem.Mol object at 0x7fdd1478bdf0>, <rdkit.Chem.rdchem.Mol object at 0x7fdd14790580>, <rdkit.Chem.rdchem.Mol object at 0x7fdd1478bd10>, <rdkit.Chem.rdchem.Mol object at 0x7fdd1478b450>, <rdkit.Chem.rdchem.Mol object at 0x7fdd1478bd80>]","[0, 0, 0, 0, 0, 0, 4872, 4873, 4874, 4875, 4876, 1, 4877, 4878, 4879, 4880, 4881]"
PBT1-EH,IDTCN,-5.43,-3.43,-5.890000000000001,-3.93,1.0,CF,_,100.0,PEDOT:PSS,ZrAcAc,8.69,8.54,0.93,70.2,"[<rdkit.Chem.rdchem.Mol object at 0x7fdd147920a0>, <rdkit.Chem.rdchem.Mol object at 0x7fdd14791d90>, <rdkit.Chem.rdchem.Mol object at 0x7fdd14791f50>, <rdkit.Chem.rdchem.Mol object at 0x7fdd14790d60>, <rdkit.Chem.rdchem.Mol object at 0x7fdd14790c10>, <rdkit.Chem.rdchem.Mol object at 0x7fdd14790f20>, <rdkit.Chem.rdchem.Mol object at 0x7fdd14793140>]","[<rdkit.Chem.rdchem.Mol object at 0x7fdd14793220>, <rdkit.Chem.rdchem.Mol object at 0x7fdd14790660>, <rdkit.Chem.rdchem.Mol object at 0x7fdd14791af0>, <rdkit.Chem.rdchem.Mol object at 0x7fdd14791540>, <rdkit.Chem.rdchem.Mol object at 0x7fdd147905f0>]","[<rdkit.Chem.rdchem.Mol object at 0x7fdd147920a0>, <rdkit.Chem.rdchem.Mol object at 0x7fdd14791d90>, <rdkit.Chem.rdchem.Mol object at 0x7fdd14791f50>, <rdkit.Chem.rdchem.Mol object at 0x7fdd14790d60>, <rdkit.Chem.rdchem.Mol object at 0x7fdd14790c10>, <rdkit.Chem.rdchem.Mol object at 0x7fdd14790f20>, <rdkit.Chem.rdchem.Mol object at 0x7fdd14793140>, '.', <rdkit.Chem.rdchem.Mol object at 0x7fdd14793220>, <rdkit.Chem.rdchem.Mol object at 0x7fdd14790660>, <rdkit.Chem.rdchem.Mol object at 0x7fdd14791af0>, <rdkit.Chem.rdchem.Mol object at 0x7fdd14791540>, <rdkit.Chem.rdchem.Mol object at 0x7fdd147905f0>]","[0, 0, 0, 0, 4923, 4924, 4925, 4926, 4927, 4928, 4929, 1, 4930, 4931, 4932, 4933, 4934]"
PBDB-T,IDT-T,-5.297714285714285,-3.4170000000000003,-5.49,-3.985,1.0,CB,_,25.0,MoOx,ZnO,6.36,6.36,0.952,59.62,"[<rdkit.Chem.rdchem.Mol object at 0x7fdd147929d0>, <rdkit.Chem.rdchem.Mol object at 0x7fdd14790b30>, <rdkit.Chem.rdchem.Mol object at 0x7fdd14791850>, <rdkit.Chem.rdchem.Mol object at 0x7fdd14792dc0>, <rdkit.Chem.rdchem.Mol object at 0x7fdd14791e70>]","[<rdkit.Chem.rdchem.Mol object at 0x7fdd14790dd0>, <rdkit.Chem.rdchem.Mol object at 0x7fdd14792420>, <rdkit.Chem.rdchem.Mol object at 0x7fdd14790ba0>, <rdkit.Chem.rdchem.Mol object at 0x7fdd147925e0>, <rdkit.Chem.rdchem.Mol object at 0x7fdd14790eb0>, <rdkit.Chem.rdchem.Mol object at 0x7fdd14790900>]","[<rdkit.Chem.rdchem.Mol object at 0x7fdd147929d0>, <rdkit.Chem.rdchem.Mol object at 0x7fdd14790b30>, <rdkit.Chem.rdchem.Mol object at 0x7fdd14791850>, <rdkit.Chem.rdchem.Mol object at 0x7fdd14792dc0>, <rdkit.Chem.rdchem.Mol object at 0x7fdd14791e70>, '.', <rdkit.Chem.rdchem.Mol object at 0x7fdd14790dd0>, <rdkit.Chem.rdchem.Mol object at 0x7fdd14792420>, <rdkit.Chem.rdchem.Mol object at 0x7fdd14790ba0>, <rdkit.Chem.rdchem.Mol object at 0x7fdd147925e0>, <rdkit.Chem.rdchem.Mol object at 0x7fdd14790eb0>, <rdkit.Chem.rdchem.Mol object at 0x7fdd14790900>]","[0, 0, 0, 0, 0, 4935, 4936, 4937, 4938, 4939, 1, 4940, 4941, 4942, 4943, 4944, 4945]"
PBDB-T,IDT-3MT,-5.297714285714285,-3.4170000000000003,-5.68,-4.16,1.0,CB,_,25.0,MoOx,ZnO,8.4,8.41,0.95,61.32,"[<rdkit.Chem.rdchem.Mol object at 0x7fdd14791070>, <rdkit.Chem.rdchem.Mol object at 0x7fdd147903c0>, <rdkit.Chem.rdchem.Mol object at 0x7fdd147912a0>, <rdkit.Chem.rdchem.Mol object at 0x7fdd14792ab0>, <rdkit.Chem.rdchem.Mol object at 0x7fdd14792ce0>]","[<rdkit.Chem.rdchem.Mol object at 0x7fdd14792490>, <rdkit.Chem.rdchem.Mol object at 0x7fdd147934c0>, <rdkit.Chem.rdchem.Mol object at 0x7fdd14791d20>, <rdkit.Chem.rdchem.Mol object at 0x7fdd147935a0>, <rdkit.Chem.rdchem.Mol object at 0x7fdd147930d0>, <rdkit.Chem.rdchem.Mol object at 0x7fdd14792b20>, <rdkit.Chem.rdchem.Mol object at 0x7fdd14792810>, <rdkit.Chem.rdchem.Mol object at 0x7fdd14793370>]","[<rdkit.Chem.rdchem.Mol object at 0x7fdd14791070>, <rdkit.Chem.rdchem.Mol object at 0x7fdd147903c0>, <rdkit.Chem.rdchem.Mol object at 0x7fdd147912a0>, <rdkit.Chem.rdchem.Mol object at 0x7fdd14792ab0>, <rdkit.Chem.rdchem.Mol object at 0x7fdd14792ce0>, '.', <rdkit.Chem.rdchem.Mol object at 0x7fdd14792490>, <rdkit.Chem.rdchem.Mol object at 0x7fdd147934c0>, <rdkit.Chem.rdchem.Mol object at 0x7fdd14791d20>, <rdkit.Chem.rdchem.Mol object at 0x7fdd147935a0>, <rdkit.Chem.rdchem.Mol object at 0x7fdd147930d0>, <rdkit.Chem.rdchem.Mol object at 0x7fdd14792b20>, <rdkit.Chem.rdchem.Mol object at 0x7fdd14792810>, <rdkit.Chem.rdchem.Mol object at 0x7fdd14793370>]","[0, 0, 0, 4946, 4947, 4948, 4949, 4950, 1, 4951, 4952, 4953, 4954, 4955, 4956, 4957, 4958]"