Donor,Acceptor,HOMO_D_eV,LUMO_D_eV,HOMO_A_eV,LUMO_A_eV,D_A_ratio_m_m,solvent,solvent_additive,annealing_temperature,PCE_percent,calc_PCE_percent,Voc_V,Jsc_mA_cm_pow_neg2,FF_percent,Donor_BRICS,Acceptor_BRICS,DA_pair_BRICS,DA_tokenized_BRICS
PBDB-TF,IDT-PhC6,-5.498333333333334,-3.653333333333333,-5.56,-3.32,1.0,CF,DIO,100.0,5.6,5.59,1.0,13.0,43.0,"['[8*]CC(CC)CCCC', '[14*]c1ccc(C)s1', '[14*]c1cc(F)c([14*])s1', '[14*]c1sc([14*])c2c1C(=O)c1c([14*])sc([14*])c1C2=O', '[14*]c1ccc([14*])s1', '[14*]c1cc2c([16*])c3sc(C)cc3c([16*])c2s1']","['[7*]C(C#N)C#N', '[7*]C1C(=O)c2ccc(C)cc2C1[7*]', '[7*]C[8*]', '[8*]CCCCCC', '[14*]c1cc2c(s1)-c1cc3c(cc1C2(c1ccc([16*])cc1)c1ccc([16*])cc1)-c1sc([14*])cc1C3(c1ccc([16*])cc1)c1ccc([16*])cc1']","['[8*]CC(CC)CCCC', '[14*]c1ccc(C)s1', '[14*]c1cc(F)c([14*])s1', '[14*]c1sc([14*])c2c1C(=O)c1c([14*])sc([14*])c1C2=O', '[14*]c1ccc([14*])s1', '[14*]c1cc2c([16*])c3sc(C)cc3c([16*])c2s1', '.', '[7*]C(C#N)C#N', '[7*]C1C(=O)c2ccc(C)cc2C1[7*]', '[7*]C[8*]', '[8*]CCCCCC', '[14*]c1cc2c(s1)-c1cc3c(cc1C2(c1ccc([16*])cc1)c1ccc([16*])cc1)-c1sc([14*])cc1C3(c1ccc([16*])cc1)c1ccc([16*])cc1']","[0, 0, 0, 0, 0, 5, 6, 24, 30, 7, 9, 1, 10, 16, 12, 13, 38]"
PTB7-Th,IDT-2BM,-5.21,-3.542368421052632,-5.586666666666666,-4.083333333333333,0.667,CB,DPE,25.0,3.97,3.99,0.826,9.29,52.0,"['[3*]O[3*]', '[4*]CC(CC)CCCC', '[1*]C([6*])=O', '[8*]CC(CC)CCCC', '[14*]c1sc2c([14*])sc(C)c2c1F', '[14*]c1ccc([14*])s1', '[14*]c1cc2c([16*])c3sc(C)cc3c([16*])c2s1']","['[7*]C(C#N)C#N', '[7*]C[8*]', '[8*]CCCCCC', '[16*]c1ccc([16*])c2nsnc12', '[14*]c1cc2c(s1)-c1cc3c(cc1C2(c1ccc([16*])cc1)c1ccc([16*])cc1)-c1sc([14*])cc1C3(c1ccc([16*])cc1)c1ccc([16*])cc1']","['[3*]O[3*]', '[4*]CC(CC)CCCC', '[1*]C([6*])=O', '[8*]CC(CC)CCCC', '[14*]c1sc2c([14*])sc(C)c2c1F', '[14*]c1ccc([14*])s1', '[14*]c1cc2c([16*])c3sc(C)cc3c([16*])c2s1', '.', '[7*]C(C#N)C#N', '[7*]C[8*]', '[8*]CCCCCC', '[16*]c1ccc([16*])c2nsnc12', '[14*]c1cc2c(s1)-c1cc3c(cc1C2(c1ccc([16*])cc1)c1ccc([16*])cc1)-c1sc([14*])cc1C3(c1ccc([16*])cc1)c1ccc([16*])cc1']","[0, 0, 0, 0, 2, 3, 4, 5, 35, 7, 9, 1, 10, 12, 13, 127, 38]"
PTB7-Th,DTNR,-5.21,-3.542368421052632,-5.22,-3.5,0.667,CB,CN,25.0,9.51,9.51,1.08,15.72,56.0,"['[3*]O[3*]', '[4*]CC(CC)CCCC', '[1*]C([6*])=O', '[8*]CC(CC)CCCC', '[14*]c1sc2c([14*])sc(C)c2c1F', '[14*]c1ccc([14*])s1', '[14*]c1cc2c([16*])c3sc(C)cc3c([16*])c2s1']","['[8*]CC', '[7*]C1SC(=S)N([10*])C1=O', '[7*]C[8*]', '[16*]c1ccc([16*])c2nsnc12', '[14*]c1cc2c(s1)-c1c(ccc3c4c(ccc13)C(CC(CC)CCCC)(CC(CC)CCCC)c1cc([14*])sc1-4)C2(CC(CC)CCCC)CC(CC)CCCC']","['[3*]O[3*]', '[4*]CC(CC)CCCC', '[1*]C([6*])=O', '[8*]CC(CC)CCCC', '[14*]c1sc2c([14*])sc(C)c2c1F', '[14*]c1ccc([14*])s1', '[14*]c1cc2c([16*])c3sc(C)cc3c([16*])c2s1', '.', '[8*]CC', '[7*]C1SC(=S)N([10*])C1=O', '[7*]C[8*]', '[16*]c1ccc([16*])c2nsnc12', '[14*]c1cc2c(s1)-c1c(ccc3c4c(ccc13)C(CC(CC)CCCC)(CC(CC)CCCC)c1cc([14*])sc1-4)C2(CC(CC)CCCC)CC(CC)CCCC']","[0, 0, 0, 0, 2, 3, 4, 5, 35, 7, 9, 1, 22, 76, 12, 127, 159]"
PTB7-Th,DTCC-IC,-5.21,-3.542368421052632,-5.5,-3.87,1.0,CF,CN,100.0,6.0,6.0,0.95,11.23,56.2,"['[3*]O[3*]', '[4*]CC(CC)CCCC', '[1*]C([6*])=O', '[8*]CC(CC)CCCC', '[14*]c1sc2c([14*])sc(C)c2c1F', '[14*]c1ccc([14*])s1', '[14*]c1cc2c([16*])c3sc(C)cc3c([16*])c2s1']","['[4*]CCCCCCCC', '[3*]O[3*]', '[7*]C(C#N)C#N', '[7*]C1C(=O)c2cc(F)c(F)cc2C1[7*]', '[8*]CCCCCCCC', '[7*]C[8*]', '[9*]n1c2cc3c(cc2c2cc4c(cc21)-c1sc([14*])cc1C4(c1ccc([16*])cc1)c1ccc([16*])cc1)C(c1ccc([16*])cc1)(c1ccc([16*])cc1)c1cc([14*])sc1-3']","['[3*]O[3*]', '[4*]CC(CC)CCCC', '[1*]C([6*])=O', '[8*]CC(CC)CCCC', '[14*]c1sc2c([14*])sc(C)c2c1F', '[14*]c1ccc([14*])s1', '[14*]c1cc2c([16*])c3sc(C)cc3c([16*])c2s1', '.', '[4*]CCCCCCCC', '[3*]O[3*]', '[7*]C(C#N)C#N', '[7*]C1C(=O)c2cc(F)c(F)cc2C1[7*]', '[8*]CCCCCCCC', '[7*]C[8*]', '[9*]n1c2cc3c(cc2c2cc4c(cc21)-c1sc([14*])cc1C4(c1ccc([16*])cc1)c1ccc([16*])cc1)C(c1ccc([16*])cc1)(c1ccc([16*])cc1)c1cc([14*])sc1-3']","[0, 0, 2, 3, 4, 5, 35, 7, 9, 1, 51, 2, 10, 42, 21, 12, 126]"
P1_BDT-TBT,PY1,-5.1,-3.48,-5.27,-4.0,0.5,CF,DIO,25.0,4.89,4.89,0.83,10.53,56.0,"['[3*]OS[11*]', '[4*]CCCCCCCCCCCC', '[14*]c1cc2c([16*])c3sc(C)cc3c([16*])c2s1', '[14*]c1ccc(C)s1', '[14*]c1ccc([14*])s1', '[16*]c1ccc([16*])c2nsnc12']","['[8*]CCCC', '[7*]C1C(=O)N([10*])C(=O)C(C#N)C1C', '[8*]CCCCCCCCCCCCCCCCC', '[7*]C[8*]', '[8*]CCCCCC', '[14*]c1cc([16*])c([14*])s1', '[9*]n1c2cc([14*])sc2c2sc([14*])cc21']","['[3*]OS[11*]', '[4*]CCCCCCCCCCCC', '[14*]c1cc2c([16*])c3sc(C)cc3c([16*])c2s1', '[14*]c1ccc(C)s1', '[14*]c1ccc([14*])s1', '[16*]c1ccc([16*])c2nsnc12', '.', '[8*]CCCC', '[7*]C1C(=O)N([10*])C(=O)C(C#N)C1C', '[8*]CCCCCCCCCCCCCCCCC', '[7*]C[8*]', '[8*]CCCCCC', '[14*]c1cc([16*])c([14*])s1', '[9*]n1c2cc([14*])sc2c2sc([14*])cc21']","[0, 0, 0, 32, 26, 9, 6, 7, 127, 1, 161, 162, 163, 12, 13, 34, 164]"
P1_BDT-TBT,DCI-2,-5.1,-3.48,-5.24,-4.05,0.5,CF,DIO,25.0,6.94,6.94,0.8,13.77,63.0,"['[3*]OS[11*]', '[4*]CCCCCCCCCCCC', '[14*]c1cc2c([16*])c3sc(C)cc3c([16*])c2s1', '[14*]c1ccc(C)s1', '[14*]c1ccc([14*])s1', '[16*]c1ccc([16*])c2nsnc12']","['[7*]C(C#N)C#N', '[7*]C1C(=O)c2ccccc2C1[7*]', '[8*]C(CCCCCCC)CCCCCCCCC', '[7*]C[8*]', '[8*]CCCCCC', '[14*]c1cc([16*])c([14*])s1', '[9*]n1c2cc([14*])sc2c2sc([14*])cc21']","['[3*]OS[11*]', '[4*]CCCCCCCCCCCC', '[14*]c1cc2c([16*])c3sc(C)cc3c([16*])c2s1', '[14*]c1ccc(C)s1', '[14*]c1ccc([14*])s1', '[16*]c1ccc([16*])c2nsnc12', '.', '[7*]C(C#N)C#N', '[7*]C1C(=O)c2ccccc2C1[7*]', '[8*]C(CCCCCCC)CCCCCCCCC', '[7*]C[8*]', '[8*]CCCCCC', '[14*]c1cc([16*])c([14*])s1', '[9*]n1c2cc([14*])sc2c2sc([14*])cc21']","[0, 0, 0, 32, 26, 9, 6, 7, 127, 1, 10, 11, 125, 12, 13, 34, 164]"
PTB7-Th,IM-IDT,-5.21,-3.542368421052632,-5.44,-4.0,1.0,o-DCB,DPE,100.0,1.6,1.41,0.58,4.96,49.16,"['[3*]O[3*]', '[4*]CC(CC)CCCC', '[1*]C([6*])=O', '[8*]CC(CC)CCCC', '[14*]c1sc2c([14*])sc(C)c2c1F', '[14*]c1ccc([14*])s1', '[14*]c1cc2c([16*])c3sc(C)cc3c([16*])c2s1']","['[7*]C(C#N)C#N', '[8*]CCCCCC', '[7*]C1C(=O)N(CC(CC)CCCC)c2cc([16*])ccc21', '[14*]c1cc2c(s1)-c1cc3c(cc1C2(c1ccc([16*])cc1)c1ccc([16*])cc1)-c1sc([14*])cc1C3(c1ccc([16*])cc1)c1ccc([16*])cc1']","['[3*]O[3*]', '[4*]CC(CC)CCCC', '[1*]C([6*])=O', '[8*]CC(CC)CCCC', '[14*]c1sc2c([14*])sc(C)c2c1F', '[14*]c1ccc([14*])s1', '[14*]c1cc2c([16*])c3sc(C)cc3c([16*])c2s1', '.', '[7*]C(C#N)C#N', '[8*]CCCCCC', '[7*]C1C(=O)N(CC(CC)CCCC)c2cc([16*])ccc21', '[14*]c1cc2c(s1)-c1cc3c(cc1C2(c1ccc([16*])cc1)c1ccc([16*])cc1)-c1sc([14*])cc1C3(c1ccc([16*])cc1)c1ccc([16*])cc1']","[0, 0, 0, 0, 0, 2, 3, 4, 5, 35, 7, 9, 1, 10, 13, 165, 38]"
PTB7-Th,COTIC-4F,-5.21,-3.542368421052632,-5.26,-4.16,0.667,CB,CN,25.0,6.4,6.4,0.56,20.3,56.3,"['[3*]O[3*]', '[4*]CC(CC)CCCC', '[1*]C([6*])=O', '[8*]CC(CC)CCCC', '[14*]c1sc2c([14*])sc(C)c2c1F', '[14*]c1ccc([14*])s1', '[14*]c1cc2c([16*])c3sc(C)cc3c([16*])c2s1']","['[4*]CC(CC)CCCC', '[3*]O[3*]', '[7*]C(C#N)C#N', '[7*]C1C(=O)c2ccccc2C1[7*]', '[7*]C[8*]', '[14*]c1cc([16*])c([14*])s1', '[14*]c1cc2c(s1)-c1sc([14*])cc1C2(CC(CC)CCCC)CC(CC)CCCC']","['[3*]O[3*]', '[4*]CC(CC)CCCC', '[1*]C([6*])=O', '[8*]CC(CC)CCCC', '[14*]c1sc2c([14*])sc(C)c2c1F', '[14*]c1ccc([14*])s1', '[14*]c1cc2c([16*])c3sc(C)cc3c([16*])c2s1', '.', '[4*]CC(CC)CCCC', '[3*]O[3*]', '[7*]C(C#N)C#N', '[7*]C1C(=O)c2ccccc2C1[7*]', '[7*]C[8*]', '[14*]c1cc([16*])c([14*])s1', '[14*]c1cc2c(s1)-c1sc([14*])cc1C2(CC(CC)CCCC)CC(CC)CCCC']","[0, 0, 2, 3, 4, 5, 35, 7, 9, 1, 3, 2, 10, 11, 12, 34, 167]"
PTB7-Th,SiOTIC-4F,-5.21,-3.542368421052632,-5.28,-4.11,0.667,CF,CN,25.0,8.6,8.62,0.65,21.6,61.4,"['[3*]O[3*]', '[4*]CC(CC)CCCC', '[1*]C([6*])=O', '[8*]CC(CC)CCCC', '[14*]c1sc2c([14*])sc(C)c2c1F', '[14*]c1ccc([14*])s1', '[14*]c1cc2c([16*])c3sc(C)cc3c([16*])c2s1']","['[4*]CC(CC)CCCC', '[3*]O[3*]', '[7*]C(C#N)C#N', '[7*]C1C(=O)c2cc(F)c(F)cc2C1[7*]', '[7*]C[8*]', '[14*]c1cc([16*])c([14*])s1', '[14*]c1cc2c(s1)-c1sc([14*])cc1[Si]2(CC(CC)CCCC)CC(CC)CCCC']","['[3*]O[3*]', '[4*]CC(CC)CCCC', '[1*]C([6*])=O', '[8*]CC(CC)CCCC', '[14*]c1sc2c([14*])sc(C)c2c1F', '[14*]c1ccc([14*])s1', '[14*]c1cc2c([16*])c3sc(C)cc3c([16*])c2s1', '.', '[4*]CC(CC)CCCC', '[3*]O[3*]', '[7*]C(C#N)C#N', '[7*]C1C(=O)c2cc(F)c(F)cc2C1[7*]', '[7*]C[8*]', '[14*]c1cc([16*])c([14*])s1', '[14*]c1cc2c(s1)-c1sc([14*])cc1[Si]2(CC(CC)CCCC)CC(CC)CCCC']","[0, 0, 2, 3, 4, 5, 35, 7, 9, 1, 3, 2, 10, 42, 12, 34, 168]"
PTB7-Th,6TIC,-5.21,-3.542368421052632,-5.33,-3.885,0.667,CB,DIO,150.0,11.07,11.06,0.831,20.11,66.16,"['[3*]O[3*]', '[4*]CC(CC)CCCC', '[1*]C([6*])=O', '[8*]CC(CC)CCCC', '[14*]c1sc2c([14*])sc(C)c2c1F', '[14*]c1ccc([14*])s1', '[14*]c1cc2c([16*])c3sc(C)cc3c([16*])c2s1']","['[7*]C(C#N)C#N', '[7*]C1C(=O)c2ccccc2C1[7*]', '[7*]C[8*]', '[8*]CCCCCC', '[14*]c1cc2sc3c(c2s1)C(c1ccc([16*])cc1)(c1ccc([16*])cc1)c1c-3sc2c3c(sc12)-c1sc2cc([14*])sc2c1C3(c1ccc([16*])cc1)c1ccc([16*])cc1']","['[3*]O[3*]', '[4*]CC(CC)CCCC', '[1*]C([6*])=O', '[8*]CC(CC)CCCC', '[14*]c1sc2c([14*])sc(C)c2c1F', '[14*]c1ccc([14*])s1', '[14*]c1cc2c([16*])c3sc(C)cc3c([16*])c2s1', '.', '[7*]C(C#N)C#N', '[7*]C1C(=O)c2ccccc2C1[7*]', '[7*]C[8*]', '[8*]CCCCCC', '[14*]c1cc2sc3c(c2s1)C(c1ccc([16*])cc1)(c1ccc([16*])cc1)c1c-3sc2c3c(sc12)-c1sc2cc([14*])sc2c1C3(c1ccc([16*])cc1)c1ccc([16*])cc1']","[0, 0, 0, 0, 2, 3, 4, 5, 35, 7, 9, 1, 10, 11, 12, 13, 14]"
PTB7-Th,COi8DFIC,-5.21,-3.542368421052632,-5.5,-3.88,1.0,CB,DIO,25.0,12.16,12.11,0.68,26.12,68.2,"['[3*]O[3*]', '[4*]CC(CC)CCCC', '[1*]C([6*])=O', '[8*]CC(CC)CCCC', '[14*]c1sc2c([14*])sc(C)c2c1F', '[14*]c1ccc([14*])s1', '[14*]c1cc2c([16*])c3sc(C)cc3c([16*])c2s1']","['[7*]C(C#N)C#N', '[7*]C1C(=O)c2cc(F)c(F)cc2C1[7*]', '[7*]C[8*]', '[8*]CCCCCC', '[14*]c1cc2sc3c(c2s1)C(c1ccc([16*])cc1)(c1ccc([16*])cc1)Oc1c-3sc2c3c(sc12)-c1sc2cc([14*])sc2c1C(c1ccc([16*])cc1)(c1ccc([16*])cc1)O3']","['[3*]O[3*]', '[4*]CC(CC)CCCC', '[1*]C([6*])=O', '[8*]CC(CC)CCCC', '[14*]c1sc2c([14*])sc(C)c2c1F', '[14*]c1ccc([14*])s1', '[14*]c1cc2c([16*])c3sc(C)cc3c([16*])c2s1', '.', '[7*]C(C#N)C#N', '[7*]C1C(=O)c2cc(F)c(F)cc2C1[7*]', '[7*]C[8*]', '[8*]CCCCCC', '[14*]c1cc2sc3c(c2s1)C(c1ccc([16*])cc1)(c1ccc([16*])cc1)Oc1c-3sc2c3c(sc12)-c1sc2cc([14*])sc2c1C(c1ccc([16*])cc1)(c1ccc([16*])cc1)O3']","[0, 0, 0, 0, 2, 3, 4, 5, 35, 7, 9, 1, 10, 42, 12, 13, 172]"
PTB7-Th,IDT-2BR,-5.21,-3.542368421052632,-5.52,-3.69,1.0,o-DCB:CF (4:1),CN,25.0,7.7,8.32,0.99,14.0,60.0,"['[3*]O[3*]', '[4*]CC(CC)CCCC', '[1*]C([6*])=O', '[8*]CC(CC)CCCC', '[14*]c1sc2c([14*])sc(C)c2c1F', '[14*]c1ccc([14*])s1', '[14*]c1cc2c([16*])c3sc(C)cc3c([16*])c2s1']","['[8*]CC', '[7*]C1SC(=S)N([10*])C1=O', '[7*]C[8*]', '[8*]CCCCCC', '[16*]c1ccc([16*])c2nsnc12', '[14*]c1cc2c(s1)-c1cc3c(cc1C2(c1ccc([16*])cc1)c1ccc([16*])cc1)-c1sc([14*])cc1C3(c1ccc([16*])cc1)c1ccc([16*])cc1']","['[3*]O[3*]', '[4*]CC(CC)CCCC', '[1*]C([6*])=O', '[8*]CC(CC)CCCC', '[14*]c1sc2c([14*])sc(C)c2c1F', '[14*]c1ccc([14*])s1', '[14*]c1cc2c([16*])c3sc(C)cc3c([16*])c2s1', '.', '[8*]CC', '[7*]C1SC(=S)N([10*])C1=O', '[7*]C[8*]', '[8*]CCCCCC', '[16*]c1ccc([16*])c2nsnc12', '[14*]c1cc2c(s1)-c1cc3c(cc1C2(c1ccc([16*])cc1)c1ccc([16*])cc1)-c1sc([14*])cc1C3(c1ccc([16*])cc1)c1ccc([16*])cc1']","[0, 0, 0, 2, 3, 4, 5, 35, 7, 9, 1, 22, 76, 12, 13, 127, 38]"
PTB7-Th,IDT-2BR1,-5.21,-3.542368421052632,-5.37,-3.67,1.0,o-DCB:CF (4:1),CN,25.0,8.7,8.66,0.95,15.2,60.0,"['[3*]O[3*]', '[4*]CC(CC)CCCC', '[1*]C([6*])=O', '[8*]CC(CC)CCCC', '[14*]c1sc2c([14*])sc(C)c2c1F', '[14*]c1ccc([14*])s1', '[14*]c1cc2c([16*])c3sc(C)cc3c([16*])c2s1']","['[8*]CC', '[7*]C1SC(=S)N([10*])C1=O', '[7*]C[8*]', '[16*]c1ccc([16*])c2nsnc12', '[14*]c1cc2c(s1)-c1cc3c(cc1C2(CCCCCC)CCCCCC)-c1sc([14*])cc1C3(CCCCCC)CCCCCC']","['[3*]O[3*]', '[4*]CC(CC)CCCC', '[1*]C([6*])=O', '[8*]CC(CC)CCCC', '[14*]c1sc2c([14*])sc(C)c2c1F', '[14*]c1ccc([14*])s1', '[14*]c1cc2c([16*])c3sc(C)cc3c([16*])c2s1', '.', '[8*]CC', '[7*]C1SC(=S)N([10*])C1=O', '[7*]C[8*]', '[16*]c1ccc([16*])c2nsnc12', '[14*]c1cc2c(s1)-c1cc3c(cc1C2(CCCCCC)CCCCCC)-c1sc([14*])cc1C3(CCCCCC)CCCCCC']","[0, 0, 0, 0, 2, 3, 4, 5, 35, 7, 9, 1, 22, 76, 12, 127, 29]"
PTB7-Th,ATT-2,-5.21,-3.542368421052632,-5.5,-3.9,0.556,CB,CN,25.0,9.58,9.54,0.73,20.75,63.0,"['[3*]O[3*]', '[4*]CC(CC)CCCC', '[1*]C([6*])=O', '[8*]CC(CC)CCCC', '[14*]c1sc2c([14*])sc(C)c2c1F', '[14*]c1ccc([14*])s1', '[14*]c1cc2c([16*])c3sc(C)cc3c([16*])c2s1']","['[3*]O[3*]', '[4*]CCCCCCCC', '[1*]C([6*])=O', '[7*]C(C#N)C#N', '[7*]C1C(=O)c2ccccc2C1[7*]', '[7*]C[8*]', '[8*]CCCCCC', '[14*]c1cc2c([14*])sc([14*])c2s1', '[14*]c1cc2c(s1)-c1cc3c(cc1C2(c1ccc([16*])cc1)c1ccc([16*])cc1)-c1sc([14*])cc1C3(c1ccc([16*])cc1)c1ccc([16*])cc1']","['[3*]O[3*]', '[4*]CC(CC)CCCC', '[1*]C([6*])=O', '[8*]CC(CC)CCCC', '[14*]c1sc2c([14*])sc(C)c2c1F', '[14*]c1ccc([14*])s1', '[14*]c1cc2c([16*])c3sc(C)cc3c([16*])c2s1', '.', '[3*]O[3*]', '[4*]CCCCCCCC', '[1*]C([6*])=O', '[7*]C(C#N)C#N', '[7*]C1C(=O)c2ccccc2C1[7*]', '[7*]C[8*]', '[8*]CCCCCC', '[14*]c1cc2c([14*])sc([14*])c2s1', '[14*]c1cc2c(s1)-c1cc3c(cc1C2(c1ccc([16*])cc1)c1ccc([16*])cc1)-c1sc([14*])cc1C3(c1ccc([16*])cc1)c1ccc([16*])cc1']","[2, 3, 4, 5, 35, 7, 9, 1, 2, 51, 4, 10, 11, 12, 13, 99, 38]"
PTB7-Th,ATT-1,-5.21,-3.542368421052632,-5.5,-3.63,0.667,o-DCB,DIO,25.0,10.07,10.04,0.87,16.48,70.0,"['[3*]O[3*]', '[4*]CC(CC)CCCC', '[1*]C([6*])=O', '[8*]CC(CC)CCCC', '[14*]c1sc2c([14*])sc(C)c2c1F', '[14*]c1ccc([14*])s1', '[14*]c1cc2c([16*])c3sc(C)cc3c([16*])c2s1']","['[3*]O[3*]', '[4*]CCCCCCCC', '[1*]C([6*])=O', '[8*]CC', '[8*]CCCCCC', '[9*]n1c(=C(C#N)C#N)s/c(=C/c2sc([14*])c3sc([14*])cc23)c1=O', '[14*]c1cc2c(s1)-c1cc3c(cc1C2(c1ccc([16*])cc1)c1ccc([16*])cc1)-c1sc([14*])cc1C3(c1ccc([16*])cc1)c1ccc([16*])cc1']","['[3*]O[3*]', '[4*]CC(CC)CCCC', '[1*]C([6*])=O', '[8*]CC(CC)CCCC', '[14*]c1sc2c([14*])sc(C)c2c1F', '[14*]c1ccc([14*])s1', '[14*]c1cc2c([16*])c3sc(C)cc3c([16*])c2s1', '.', '[3*]O[3*]', '[4*]CCCCCCCC', '[1*]C([6*])=O', '[8*]CC', '[8*]CCCCCC', '[9*]n1c(=C(C#N)C#N)s/c(=C/c2sc([14*])c3sc([14*])cc23)c1=O', '[14*]c1cc2c(s1)-c1cc3c(cc1C2(c1ccc([16*])cc1)c1ccc([16*])cc1)-c1sc([14*])cc1C3(c1ccc([16*])cc1)c1ccc([16*])cc1']","[0, 0, 2, 3, 4, 5, 35, 7, 9, 1, 2, 51, 4, 22, 13, 174, 38]"
PBDTT-6ttTPD,ITIC,-5.36,-3.51,-5.574146341463415,-3.915,1.0,CF,DIO,25.0,9.98,9.98,0.942,15.63,67.8,"['[8*]C(CCCCCC)CCCCCCCCCC', '[8*]C(CC)CCCCCC', '[8*]CCCCCC', '[14*]c1cc2sc(C)c([16*])c2s1', '[14*]c1ccc([14*])s1', '[10*]N1C(=O)c2c([14*])sc([14*])c2C1=O', '[14*]c1cc2sc([14*])c([16*])c2s1', '[14*]c1cc2c([16*])c3sc(C)cc3c([16*])c2s1']","['[7*]C(C#N)C#N', '[7*]C1C(=O)c2ccccc2C1[7*]', '[7*]C[8*]', '[8*]CCCCCC', '[14*]c1cc2sc3c(c2s1)C(c1ccc([16*])cc1)(c1ccc([16*])cc1)c1cc2c(cc1-3)C(c1ccc([16*])cc1)(c1ccc([16*])cc1)c1c-2sc2cc([14*])sc12']","['[8*]C(CCCCCC)CCCCCCCCCC', '[8*]C(CC)CCCCCC', '[8*]CCCCCC', '[14*]c1cc2sc(C)c([16*])c2s1', '[14*]c1ccc([14*])s1', '[10*]N1C(=O)c2c([14*])sc([14*])c2C1=O', '[14*]c1cc2sc([14*])c([16*])c2s1', '[14*]c1cc2c([16*])c3sc(C)cc3c([16*])c2s1', '.', '[7*]C(C#N)C#N', '[7*]C1C(=O)c2ccccc2C1[7*]', '[7*]C[8*]', '[8*]CCCCCC', '[14*]c1cc2sc3c(c2s1)C(c1ccc([16*])cc1)(c1ccc([16*])cc1)c1cc2c(cc1-3)C(c1ccc([16*])cc1)(c1ccc([16*])cc1)c1c-2sc2cc([14*])sc12']","[0, 0, 0, 175, 85, 13, 176, 7, 177, 178, 9, 1, 10, 11, 12, 13, 15]"
PMOT16,ITIC,-5.52,-3.66,-5.574146341463415,-3.915,1.0,CF,DIO,25.0,7.63,7.64,1.001,13.0,58.7,"['[3*]OC', '[8*]CC(CCCCCC)CCCCCCCC', '[8*]CC(CC)CCCC', '[8*]CCCCCC', '[14*]c1cc2sc(C)c([16*])c2s1', '[14*]c1cc([16*])c([14*])s1', '[10*]N1C(=O)c2c([14*])sc([14*])c2C1=O', '[14*]c1cc2sc([14*])c([16*])c2s1', '[14*]c1cc2c([16*])c3sc(C)cc3c([16*])c2s1']","['[7*]C(C#N)C#N', '[7*]C1C(=O)c2ccccc2C1[7*]', '[7*]C[8*]', '[8*]CCCCCC', '[14*]c1cc2sc3c(c2s1)C(c1ccc([16*])cc1)(c1ccc([16*])cc1)c1cc2c(cc1-3)C(c1ccc([16*])cc1)(c1ccc([16*])cc1)c1c-2sc2cc([14*])sc12']","['[3*]OC', '[8*]CC(CCCCCC)CCCCCCCC', '[8*]CC(CC)CCCC', '[8*]CCCCCC', '[14*]c1cc2sc(C)c([16*])c2s1', '[14*]c1cc([16*])c([14*])s1', '[10*]N1C(=O)c2c([14*])sc([14*])c2C1=O', '[14*]c1cc2sc([14*])c([16*])c2s1', '[14*]c1cc2c([16*])c3sc(C)cc3c([16*])c2s1', '.', '[7*]C(C#N)C#N', '[7*]C1C(=O)c2ccccc2C1[7*]', '[7*]C[8*]', '[8*]CCCCCC', '[14*]c1cc2sc3c(c2s1)C(c1ccc([16*])cc1)(c1ccc([16*])cc1)c1cc2c(cc1-3)C(c1ccc([16*])cc1)(c1ccc([16*])cc1)c1c-2sc2cc([14*])sc12']","[0, 0, 69, 17, 5, 13, 176, 34, 177, 178, 9, 1, 10, 11, 12, 13, 15]"
PBDTT-6ttTPD,IDIC,-5.36,-3.51,-5.706,-4.002666666666667,1.0,CF,DIO,25.0,8.58,8.58,0.822,15.93,65.5,"['[8*]C(CCCCCC)CCCCCCCCCC', '[8*]C(CC)CCCCCC', '[8*]CCCCCC', '[14*]c1cc2sc(C)c([16*])c2s1', '[14*]c1ccc([14*])s1', '[10*]N1C(=O)c2c([14*])sc([14*])c2C1=O', '[14*]c1cc2sc([14*])c([16*])c2s1', '[14*]c1cc2c([16*])c3sc(C)cc3c([16*])c2s1']","['[7*]C(C#N)C#N', '[7*]C1C(=O)c2ccccc2C1[7*]', '[7*]C[8*]', '[14*]c1cc2c(s1)-c1cc3c(cc1C2(CCCCCC)CCCCCC)-c1sc([14*])cc1C3(CCCCCC)CCCCCC']","['[8*]C(CCCCCC)CCCCCCCCCC', '[8*]C(CC)CCCCCC', '[8*]CCCCCC', '[14*]c1cc2sc(C)c([16*])c2s1', '[14*]c1ccc([14*])s1', '[10*]N1C(=O)c2c([14*])sc([14*])c2C1=O', '[14*]c1cc2sc([14*])c([16*])c2s1', '[14*]c1cc2c([16*])c3sc(C)cc3c([16*])c2s1', '.', '[7*]C(C#N)C#N', '[7*]C1C(=O)c2ccccc2C1[7*]', '[7*]C[8*]', '[14*]c1cc2c(s1)-c1cc3c(cc1C2(CCCCCC)CCCCCC)-c1sc([14*])cc1C3(CCCCCC)CCCCCC']","[0, 0, 0, 0, 175, 85, 13, 176, 7, 177, 178, 9, 1, 10, 11, 12, 29]"
PMOT16,IDIC,-5.52,-3.66,-5.706,-4.002666666666667,1.0,CF,DIO,25.0,10.04,10.04,0.925,16.13,67.3,"['[3*]OC', '[8*]CC(CCCCCC)CCCCCCCC', '[8*]CC(CC)CCCC', '[8*]CCCCCC', '[14*]c1cc2sc(C)c([16*])c2s1', '[14*]c1cc([16*])c([14*])s1', '[10*]N1C(=O)c2c([14*])sc([14*])c2C1=O', '[14*]c1cc2sc([14*])c([16*])c2s1', '[14*]c1cc2c([16*])c3sc(C)cc3c([16*])c2s1']","['[7*]C(C#N)C#N', '[7*]C1C(=O)c2ccccc2C1[7*]', '[7*]C[8*]', '[14*]c1cc2c(s1)-c1cc3c(cc1C2(CCCCCC)CCCCCC)-c1sc([14*])cc1C3(CCCCCC)CCCCCC']","['[3*]OC', '[8*]CC(CCCCCC)CCCCCCCC', '[8*]CC(CC)CCCC', '[8*]CCCCCC', '[14*]c1cc2sc(C)c([16*])c2s1', '[14*]c1cc([16*])c([14*])s1', '[10*]N1C(=O)c2c([14*])sc([14*])c2C1=O', '[14*]c1cc2sc([14*])c([16*])c2s1', '[14*]c1cc2c([16*])c3sc(C)cc3c([16*])c2s1', '.', '[7*]C(C#N)C#N', '[7*]C1C(=O)c2ccccc2C1[7*]', '[7*]C[8*]', '[14*]c1cc2c(s1)-c1cc3c(cc1C2(CCCCCC)CCCCCC)-c1sc([14*])cc1C3(CCCCCC)CCCCCC']","[0, 0, 0, 69, 17, 5, 13, 176, 34, 177, 178, 9, 1, 10, 11, 12, 29]"
PTZP,IDIC,-5.41,-3.4,-5.706,-4.002666666666667,0.667,CB,DIO,25.0,11.8,11.81,0.9,17.9,73.3,"['[4*]CC(CCCC)CCCCCC', '[8*]CC(CC)CCCC', '[11*]S[11*]', '[14*]c1cc([16*])c(C)s1', '[14*]c1ccc([14*])s1', '[14*]c1cc([16*])c([14*])s1', '[14*]c1nc2sc([14*])nc2s1', '[14*]c1cc2c([16*])c3sc(C)cc3c([16*])c2s1']","['[7*]C(C#N)C#N', '[7*]C1C(=O)c2ccccc2C1[7*]', '[7*]C[8*]', '[14*]c1cc2c(s1)-c1cc3c(cc1C2(CCCCCC)CCCCCC)-c1sc([14*])cc1C3(CCCCCC)CCCCCC']","['[4*]CC(CCCC)CCCCCC', '[8*]CC(CC)CCCC', '[11*]S[11*]', '[14*]c1cc([16*])c(C)s1', '[14*]c1ccc([14*])s1', '[14*]c1cc([16*])c([14*])s1', '[14*]c1nc2sc([14*])nc2s1', '[14*]c1cc2c([16*])c3sc(C)cc3c([16*])c2s1', '.', '[7*]C(C#N)C#N', '[7*]C1C(=O)c2ccccc2C1[7*]', '[7*]C[8*]', '[14*]c1cc2c(s1)-c1cc3c(cc1C2(CCCCCC)CCCCCC)-c1sc([14*])cc1C3(CCCCCC)CCCCCC']","[0, 0, 0, 0, 33, 5, 25, 57, 7, 34, 142, 9, 1, 10, 11, 12, 29]"
P3HT,BTA1,-5.057777777777777,-2.989444444444445,-5.510000000000001,-3.5499999999999994,1.667,CF,CN,100.0,5.24,5.24,1.02,7.34,70.0,"['[8*]CCCCCC', '[14*]c1sc(C)cc1[16*]', '[14*]c1cc([16*])c(C)s1', '[14*]c1cc([16*])c([14*])s1']","['[8*]CC', '[7*]C1SC(=S)N([10*])C1=O', '[8*]CCCCCCCC', '[7*]C[8*]', '[8*]CCCCCC', '[9*]n1nc2c([16*])ccc([16*])c2n1', '[14*]c1cc2c(s1)-c1cc3c(cc1C2(c1ccc([16*])cc1)c1ccc([16*])cc1)-c1sc([14*])cc1C3(c1ccc([16*])cc1)c1ccc([16*])cc1']","['[8*]CCCCCC', '[14*]c1sc(C)cc1[16*]', '[14*]c1cc([16*])c(C)s1', '[14*]c1cc([16*])c([14*])s1', '.', '[8*]CC', '[7*]C1SC(=S)N([10*])C1=O', '[8*]CCCCCCCC', '[7*]C[8*]', '[8*]CCCCCC', '[9*]n1nc2c([16*])ccc([16*])c2n1', '[14*]c1cc2c(s1)-c1cc3c(cc1C2(c1ccc([16*])cc1)c1ccc([16*])cc1)-c1sc([14*])cc1C3(c1ccc([16*])cc1)c1ccc([16*])cc1']","[0, 0, 0, 0, 0, 13, 102, 57, 34, 1, 22, 76, 21, 12, 13, 47, 38]"