Donor,Acceptor,HOMO_D_eV,LUMO_D_eV,HOMO_A_eV,LUMO_A_eV,D_A_ratio_m_m,solvent,solvent_additive,annealing_temperature,hole_contact_layer,electron_contact_layer,PCE_percent,calc_PCE_percent,Voc_V,FF_percent,Donor_BRICS,Acceptor_BRICS,DA_pair_BRICS,DA_tokenized_BRICS
J61,IDT-IC,-5.303333333333334,-3.151666666666667,-5.693333333333334,-3.866666666666666,1.0,CF,_,160.0,PEDOT:PSS,PDINO,6.95,6.91,0.88,57.3,"[<rdkit.Chem.rdchem.Mol object at 0x7fdd149c2880>, <rdkit.Chem.rdchem.Mol object at 0x7fdd149ac660>, <rdkit.Chem.rdchem.Mol object at 0x7fdd149c3840>, <rdkit.Chem.rdchem.Mol object at 0x7fdd149aceb0>, <rdkit.Chem.rdchem.Mol object at 0x7fdd149ad4d0>, <rdkit.Chem.rdchem.Mol object at 0x7fdd149ac190>, <rdkit.Chem.rdchem.Mol object at 0x7fdd149ade00>]","[<rdkit.Chem.rdchem.Mol object at 0x7fdd149ada10>, <rdkit.Chem.rdchem.Mol object at 0x7fdd149ac430>, <rdkit.Chem.rdchem.Mol object at 0x7fdd149ad930>, <rdkit.Chem.rdchem.Mol object at 0x7fdd149ad8c0>, <rdkit.Chem.rdchem.Mol object at 0x7fdd149ad000>]","[<rdkit.Chem.rdchem.Mol object at 0x7fdd149c2880>, <rdkit.Chem.rdchem.Mol object at 0x7fdd149ac660>, <rdkit.Chem.rdchem.Mol object at 0x7fdd149c3840>, <rdkit.Chem.rdchem.Mol object at 0x7fdd149aceb0>, <rdkit.Chem.rdchem.Mol object at 0x7fdd149ad4d0>, <rdkit.Chem.rdchem.Mol object at 0x7fdd149ac190>, <rdkit.Chem.rdchem.Mol object at 0x7fdd149ade00>, '.', <rdkit.Chem.rdchem.Mol object at 0x7fdd149ada10>, <rdkit.Chem.rdchem.Mol object at 0x7fdd149ac430>, <rdkit.Chem.rdchem.Mol object at 0x7fdd149ad930>, <rdkit.Chem.rdchem.Mol object at 0x7fdd149ad8c0>, <rdkit.Chem.rdchem.Mol object at 0x7fdd149ad000>]","[0, 0, 0, 0, 167, 168, 169, 170, 171, 172, 173, 1, 174, 175, 176, 177, 178]"
J61,SJ-IC,-5.303333333333334,-3.151666666666667,-5.61,-3.94,1.0,CF,_,160.0,PEDOT:PSS,PDINO,9.27,9.3,0.83,65.95,"[<rdkit.Chem.rdchem.Mol object at 0x7fdd149c3a70>, <rdkit.Chem.rdchem.Mol object at 0x7fdd149ad310>, <rdkit.Chem.rdchem.Mol object at 0x7fdd149ad460>, <rdkit.Chem.rdchem.Mol object at 0x7fdd149adfc0>, <rdkit.Chem.rdchem.Mol object at 0x7fdd149ad0e0>, <rdkit.Chem.rdchem.Mol object at 0x7fdd149ad850>, <rdkit.Chem.rdchem.Mol object at 0x7fdd149ae340>]","[<rdkit.Chem.rdchem.Mol object at 0x7fdd149ae030>, <rdkit.Chem.rdchem.Mol object at 0x7fdd149ad150>, <rdkit.Chem.rdchem.Mol object at 0x7fdd149ac120>, <rdkit.Chem.rdchem.Mol object at 0x7fdd149ae2d0>, <rdkit.Chem.rdchem.Mol object at 0x7fdd149ae5e0>, <rdkit.Chem.rdchem.Mol object at 0x7fdd149ad7e0>]","[<rdkit.Chem.rdchem.Mol object at 0x7fdd149c3a70>, <rdkit.Chem.rdchem.Mol object at 0x7fdd149ad310>, <rdkit.Chem.rdchem.Mol object at 0x7fdd149ad460>, <rdkit.Chem.rdchem.Mol object at 0x7fdd149adfc0>, <rdkit.Chem.rdchem.Mol object at 0x7fdd149ad0e0>, <rdkit.Chem.rdchem.Mol object at 0x7fdd149ad850>, <rdkit.Chem.rdchem.Mol object at 0x7fdd149ae340>, '.', <rdkit.Chem.rdchem.Mol object at 0x7fdd149ae030>, <rdkit.Chem.rdchem.Mol object at 0x7fdd149ad150>, <rdkit.Chem.rdchem.Mol object at 0x7fdd149ac120>, <rdkit.Chem.rdchem.Mol object at 0x7fdd149ae2d0>, <rdkit.Chem.rdchem.Mol object at 0x7fdd149ae5e0>, <rdkit.Chem.rdchem.Mol object at 0x7fdd149ad7e0>]","[0, 0, 0, 179, 180, 181, 182, 183, 184, 185, 1, 186, 187, 188, 189, 190, 191]"
J71,IDTT-BH,-5.353333333333333,-3.4318181818181825,-5.24,-3.86,0.714,CF,_,25.0,PEDOT:PSS,PDINO,11.05,11.05,0.9,69.1,"[<rdkit.Chem.rdchem.Mol object at 0x7fdd149ad9a0>, <rdkit.Chem.rdchem.Mol object at 0x7fdd149add90>, <rdkit.Chem.rdchem.Mol object at 0x7fdd149ad070>, <rdkit.Chem.rdchem.Mol object at 0x7fdd149ad770>, <rdkit.Chem.rdchem.Mol object at 0x7fdd149ad2a0>, <rdkit.Chem.rdchem.Mol object at 0x7fdd149ae180>]","[<rdkit.Chem.rdchem.Mol object at 0x7fdd149ae0a0>, <rdkit.Chem.rdchem.Mol object at 0x7fdd149ae420>, <rdkit.Chem.rdchem.Mol object at 0x7fdd149ada80>, <rdkit.Chem.rdchem.Mol object at 0x7fdd149ac350>, <rdkit.Chem.rdchem.Mol object at 0x7fdd149ad690>, <rdkit.Chem.rdchem.Mol object at 0x7fdd149adbd0>]","[<rdkit.Chem.rdchem.Mol object at 0x7fdd149ad9a0>, <rdkit.Chem.rdchem.Mol object at 0x7fdd149add90>, <rdkit.Chem.rdchem.Mol object at 0x7fdd149ad070>, <rdkit.Chem.rdchem.Mol object at 0x7fdd149ad770>, <rdkit.Chem.rdchem.Mol object at 0x7fdd149ad2a0>, <rdkit.Chem.rdchem.Mol object at 0x7fdd149ae180>, '.', <rdkit.Chem.rdchem.Mol object at 0x7fdd149ae0a0>, <rdkit.Chem.rdchem.Mol object at 0x7fdd149ae420>, <rdkit.Chem.rdchem.Mol object at 0x7fdd149ada80>, <rdkit.Chem.rdchem.Mol object at 0x7fdd149ac350>, <rdkit.Chem.rdchem.Mol object at 0x7fdd149ad690>, <rdkit.Chem.rdchem.Mol object at 0x7fdd149adbd0>]","[0, 0, 0, 0, 192, 193, 194, 195, 196, 197, 1, 198, 199, 200, 201, 202, 203]"
PBDB-T,IDTT-BH,-5.297714285714285,-3.4170000000000003,-5.24,-3.86,1.25,CF,_,100.0,PEDOT:PSS,PDINO,9.92,9.92,0.85,69.2,"[<rdkit.Chem.rdchem.Mol object at 0x7fdd149ad3f0>, <rdkit.Chem.rdchem.Mol object at 0x7fdd149ae490>, <rdkit.Chem.rdchem.Mol object at 0x7fdd149ad700>, <rdkit.Chem.rdchem.Mol object at 0x7fdd149ae810>, <rdkit.Chem.rdchem.Mol object at 0x7fdd149af220>]","[<rdkit.Chem.rdchem.Mol object at 0x7fdd149af060>, <rdkit.Chem.rdchem.Mol object at 0x7fdd149ae960>, <rdkit.Chem.rdchem.Mol object at 0x7fdd149af290>, <rdkit.Chem.rdchem.Mol object at 0x7fdd149ae730>, <rdkit.Chem.rdchem.Mol object at 0x7fdd149acc80>, <rdkit.Chem.rdchem.Mol object at 0x7fdd149adaf0>]","[<rdkit.Chem.rdchem.Mol object at 0x7fdd149ad3f0>, <rdkit.Chem.rdchem.Mol object at 0x7fdd149ae490>, <rdkit.Chem.rdchem.Mol object at 0x7fdd149ad700>, <rdkit.Chem.rdchem.Mol object at 0x7fdd149ae810>, <rdkit.Chem.rdchem.Mol object at 0x7fdd149af220>, '.', <rdkit.Chem.rdchem.Mol object at 0x7fdd149af060>, <rdkit.Chem.rdchem.Mol object at 0x7fdd149ae960>, <rdkit.Chem.rdchem.Mol object at 0x7fdd149af290>, <rdkit.Chem.rdchem.Mol object at 0x7fdd149ae730>, <rdkit.Chem.rdchem.Mol object at 0x7fdd149acc80>, <rdkit.Chem.rdchem.Mol object at 0x7fdd149adaf0>]","[0, 0, 0, 0, 0, 204, 205, 206, 207, 208, 1, 209, 210, 211, 212, 213, 214]"
PDCBT,IDTT-BH,-5.313333333333333,-3.1,-5.24,-3.86,0.833,CF,_,120.0,PEDOT:PSS,PDINO,10.35,10.35,0.88,68.6,"[<rdkit.Chem.rdchem.Mol object at 0x7fdd149aec70>, <rdkit.Chem.rdchem.Mol object at 0x7fdd149aec00>, <rdkit.Chem.rdchem.Mol object at 0x7fdd149ae880>, <rdkit.Chem.rdchem.Mol object at 0x7fdd149ae7a0>, <rdkit.Chem.rdchem.Mol object at 0x7fdd149af450>]","[<rdkit.Chem.rdchem.Mol object at 0x7fdd149aedc0>, <rdkit.Chem.rdchem.Mol object at 0x7fdd149ad540>, <rdkit.Chem.rdchem.Mol object at 0x7fdd149ac820>, <rdkit.Chem.rdchem.Mol object at 0x7fdd149ae500>, <rdkit.Chem.rdchem.Mol object at 0x7fdd149ade70>, <rdkit.Chem.rdchem.Mol object at 0x7fdd149ac900>]","[<rdkit.Chem.rdchem.Mol object at 0x7fdd149aec70>, <rdkit.Chem.rdchem.Mol object at 0x7fdd149aec00>, <rdkit.Chem.rdchem.Mol object at 0x7fdd149ae880>, <rdkit.Chem.rdchem.Mol object at 0x7fdd149ae7a0>, <rdkit.Chem.rdchem.Mol object at 0x7fdd149af450>, '.', <rdkit.Chem.rdchem.Mol object at 0x7fdd149aedc0>, <rdkit.Chem.rdchem.Mol object at 0x7fdd149ad540>, <rdkit.Chem.rdchem.Mol object at 0x7fdd149ac820>, <rdkit.Chem.rdchem.Mol object at 0x7fdd149ae500>, <rdkit.Chem.rdchem.Mol object at 0x7fdd149ade70>, <rdkit.Chem.rdchem.Mol object at 0x7fdd149ac900>]","[0, 0, 0, 0, 0, 215, 216, 217, 218, 219, 1, 220, 221, 222, 223, 224, 225]"
J71,IDTT-OBH,-5.353333333333333,-3.4318181818181825,-5.41,-3.86,1.0,CF,_,25.0,PEDOT:PSS,PDINO,8.02,8.28,0.92,61.0,"[<rdkit.Chem.rdchem.Mol object at 0x7fdd149ae650>, <rdkit.Chem.rdchem.Mol object at 0x7fdd149af370>, <rdkit.Chem.rdchem.Mol object at 0x7fdd149ad5b0>, <rdkit.Chem.rdchem.Mol object at 0x7fdd149ae9d0>, <rdkit.Chem.rdchem.Mol object at 0x7fdd149ae3b0>, <rdkit.Chem.rdchem.Mol object at 0x7fdd149aeea0>]","[<rdkit.Chem.rdchem.Mol object at 0x7fdd149ae8f0>, <rdkit.Chem.rdchem.Mol object at 0x7fdd149adf50>, <rdkit.Chem.rdchem.Mol object at 0x7fdd149ae570>, <rdkit.Chem.rdchem.Mol object at 0x7fdd149ad1c0>, <rdkit.Chem.rdchem.Mol object at 0x7fdd149ae1f0>, <rdkit.Chem.rdchem.Mol object at 0x7fdd149adee0>]","[<rdkit.Chem.rdchem.Mol object at 0x7fdd149ae650>, <rdkit.Chem.rdchem.Mol object at 0x7fdd149af370>, <rdkit.Chem.rdchem.Mol object at 0x7fdd149ad5b0>, <rdkit.Chem.rdchem.Mol object at 0x7fdd149ae9d0>, <rdkit.Chem.rdchem.Mol object at 0x7fdd149ae3b0>, <rdkit.Chem.rdchem.Mol object at 0x7fdd149aeea0>, '.', <rdkit.Chem.rdchem.Mol object at 0x7fdd149ae8f0>, <rdkit.Chem.rdchem.Mol object at 0x7fdd149adf50>, <rdkit.Chem.rdchem.Mol object at 0x7fdd149ae570>, <rdkit.Chem.rdchem.Mol object at 0x7fdd149ad1c0>, <rdkit.Chem.rdchem.Mol object at 0x7fdd149ae1f0>, <rdkit.Chem.rdchem.Mol object at 0x7fdd149adee0>]","[0, 0, 0, 0, 226, 227, 228, 229, 230, 231, 1, 232, 233, 234, 235, 236, 237]"
PBDB-T,IDTT-OBH,-5.297714285714285,-3.4170000000000003,-5.41,-3.86,1.25,CF,_,110.0,PEDOT:PSS,PDINO,10.93,10.94,0.87,72.0,"[<rdkit.Chem.rdchem.Mol object at 0x7fdd149af140>, <rdkit.Chem.rdchem.Mol object at 0x7fdd149ae110>, <rdkit.Chem.rdchem.Mol object at 0x7fdd149ae6c0>, <rdkit.Chem.rdchem.Mol object at 0x7fdd149af760>, <rdkit.Chem.rdchem.Mol object at 0x7fdd149a0040>]","[<rdkit.Chem.rdchem.Mol object at 0x7fdd149af8b0>, <rdkit.Chem.rdchem.Mol object at 0x7fdd149af990>, <rdkit.Chem.rdchem.Mol object at 0x7fdd149af7d0>, <rdkit.Chem.rdchem.Mol object at 0x7fdd149afd80>, <rdkit.Chem.rdchem.Mol object at 0x7fdd149af4c0>, <rdkit.Chem.rdchem.Mol object at 0x7fdd149af840>]","[<rdkit.Chem.rdchem.Mol object at 0x7fdd149af140>, <rdkit.Chem.rdchem.Mol object at 0x7fdd149ae110>, <rdkit.Chem.rdchem.Mol object at 0x7fdd149ae6c0>, <rdkit.Chem.rdchem.Mol object at 0x7fdd149af760>, <rdkit.Chem.rdchem.Mol object at 0x7fdd149a0040>, '.', <rdkit.Chem.rdchem.Mol object at 0x7fdd149af8b0>, <rdkit.Chem.rdchem.Mol object at 0x7fdd149af990>, <rdkit.Chem.rdchem.Mol object at 0x7fdd149af7d0>, <rdkit.Chem.rdchem.Mol object at 0x7fdd149afd80>, <rdkit.Chem.rdchem.Mol object at 0x7fdd149af4c0>, <rdkit.Chem.rdchem.Mol object at 0x7fdd149af840>]","[0, 0, 0, 0, 0, 238, 239, 240, 241, 242, 1, 243, 244, 245, 246, 247, 248]"
PDCBT,IDTT-OBH,-5.313333333333333,-3.1,-5.41,-3.86,0.833,CF,_,120.0,PEDOT:PSS,PDINO,8.24,8.24,0.91,64.8,"[<rdkit.Chem.rdchem.Mol object at 0x7fdd149af530>, <rdkit.Chem.rdchem.Mol object at 0x7fdd149aeab0>, <rdkit.Chem.rdchem.Mol object at 0x7fdd149af1b0>, <rdkit.Chem.rdchem.Mol object at 0x7fdd149afd10>, <rdkit.Chem.rdchem.Mol object at 0x7fdd149afb50>]","[<rdkit.Chem.rdchem.Mol object at 0x7fdd149aff40>, <rdkit.Chem.rdchem.Mol object at 0x7fdd149adc40>, <rdkit.Chem.rdchem.Mol object at 0x7fdd149aeb20>, <rdkit.Chem.rdchem.Mol object at 0x7fdd149afc30>, <rdkit.Chem.rdchem.Mol object at 0x7fdd149ac200>, <rdkit.Chem.rdchem.Mol object at 0x7fdd149aee30>]","[<rdkit.Chem.rdchem.Mol object at 0x7fdd149af530>, <rdkit.Chem.rdchem.Mol object at 0x7fdd149aeab0>, <rdkit.Chem.rdchem.Mol object at 0x7fdd149af1b0>, <rdkit.Chem.rdchem.Mol object at 0x7fdd149afd10>, <rdkit.Chem.rdchem.Mol object at 0x7fdd149afb50>, '.', <rdkit.Chem.rdchem.Mol object at 0x7fdd149aff40>, <rdkit.Chem.rdchem.Mol object at 0x7fdd149adc40>, <rdkit.Chem.rdchem.Mol object at 0x7fdd149aeb20>, <rdkit.Chem.rdchem.Mol object at 0x7fdd149afc30>, <rdkit.Chem.rdchem.Mol object at 0x7fdd149ac200>, <rdkit.Chem.rdchem.Mol object at 0x7fdd149aee30>]","[0, 0, 0, 0, 0, 249, 250, 251, 252, 253, 1, 254, 255, 256, 257, 258, 259]"
J52,IEICO-4Cl,-5.218571428571429,-3.341428571428572,-5.56,-4.23,0.667,CB,DIO,150.0,PEDOT:PSS,PFN-Br,10.1,10.11,0.7,60.7,"[<rdkit.Chem.rdchem.Mol object at 0x7fdd149adb60>, <rdkit.Chem.rdchem.Mol object at 0x7fdd149aed50>, <rdkit.Chem.rdchem.Mol object at 0x7fdd149add20>, <rdkit.Chem.rdchem.Mol object at 0x7fdd149afdf0>, <rdkit.Chem.rdchem.Mol object at 0x7fdd149a0270>, <rdkit.Chem.rdchem.Mol object at 0x7fdd149a07b0>]","[<rdkit.Chem.rdchem.Mol object at 0x7fdd149afa70>, <rdkit.Chem.rdchem.Mol object at 0x7fdd149af680>, <rdkit.Chem.rdchem.Mol object at 0x7fdd149afa00>, <rdkit.Chem.rdchem.Mol object at 0x7fdd149af0d0>, <rdkit.Chem.rdchem.Mol object at 0x7fdd149af300>, <rdkit.Chem.rdchem.Mol object at 0x7fdd149af6f0>, <rdkit.Chem.rdchem.Mol object at 0x7fdd149a09e0>, <rdkit.Chem.rdchem.Mol object at 0x7fdd149a0820>]","[<rdkit.Chem.rdchem.Mol object at 0x7fdd149adb60>, <rdkit.Chem.rdchem.Mol object at 0x7fdd149aed50>, <rdkit.Chem.rdchem.Mol object at 0x7fdd149add20>, <rdkit.Chem.rdchem.Mol object at 0x7fdd149afdf0>, <rdkit.Chem.rdchem.Mol object at 0x7fdd149a0270>, <rdkit.Chem.rdchem.Mol object at 0x7fdd149a07b0>, '.', <rdkit.Chem.rdchem.Mol object at 0x7fdd149afa70>, <rdkit.Chem.rdchem.Mol object at 0x7fdd149af680>, <rdkit.Chem.rdchem.Mol object at 0x7fdd149afa00>, <rdkit.Chem.rdchem.Mol object at 0x7fdd149af0d0>, <rdkit.Chem.rdchem.Mol object at 0x7fdd149af300>, <rdkit.Chem.rdchem.Mol object at 0x7fdd149af6f0>, <rdkit.Chem.rdchem.Mol object at 0x7fdd149a09e0>, <rdkit.Chem.rdchem.Mol object at 0x7fdd149a0820>]","[0, 0, 260, 261, 262, 263, 264, 265, 1, 266, 267, 268, 269, 270, 271, 272, 273]"
PBDB-T,IEICO-4Cl,-5.297714285714285,-3.4170000000000003,-5.56,-4.23,1.0,CB,DIO,150.0,PEDOT:PSS,PFN-Br,9.67,9.67,0.744,62.5,"[<rdkit.Chem.rdchem.Mol object at 0x7fdd149ae260>, <rdkit.Chem.rdchem.Mol object at 0x7fdd149a0a50>, <rdkit.Chem.rdchem.Mol object at 0x7fdd149a0190>, <rdkit.Chem.rdchem.Mol object at 0x7fdd149a02e0>, <rdkit.Chem.rdchem.Mol object at 0x7fdd149a1230>]","[<rdkit.Chem.rdchem.Mol object at 0x7fdd149afed0>, <rdkit.Chem.rdchem.Mol object at 0x7fdd149afe60>, <rdkit.Chem.rdchem.Mol object at 0x7fdd149a0b30>, <rdkit.Chem.rdchem.Mol object at 0x7fdd149aef80>, <rdkit.Chem.rdchem.Mol object at 0x7fdd149af920>, <rdkit.Chem.rdchem.Mol object at 0x7fdd149a0ac0>, <rdkit.Chem.rdchem.Mol object at 0x7fdd149a0ba0>, <rdkit.Chem.rdchem.Mol object at 0x7fdd149a00b0>]","[<rdkit.Chem.rdchem.Mol object at 0x7fdd149ae260>, <rdkit.Chem.rdchem.Mol object at 0x7fdd149a0a50>, <rdkit.Chem.rdchem.Mol object at 0x7fdd149a0190>, <rdkit.Chem.rdchem.Mol object at 0x7fdd149a02e0>, <rdkit.Chem.rdchem.Mol object at 0x7fdd149a1230>, '.', <rdkit.Chem.rdchem.Mol object at 0x7fdd149afed0>, <rdkit.Chem.rdchem.Mol object at 0x7fdd149afe60>, <rdkit.Chem.rdchem.Mol object at 0x7fdd149a0b30>, <rdkit.Chem.rdchem.Mol object at 0x7fdd149aef80>, <rdkit.Chem.rdchem.Mol object at 0x7fdd149af920>, <rdkit.Chem.rdchem.Mol object at 0x7fdd149a0ac0>, <rdkit.Chem.rdchem.Mol object at 0x7fdd149a0ba0>, <rdkit.Chem.rdchem.Mol object at 0x7fdd149a00b0>]","[0, 0, 0, 274, 275, 276, 277, 278, 1, 279, 280, 281, 282, 283, 284, 285, 286]"
PTB7-Th,IEICO-4Cl,-5.204782608695651,-3.5391891891891896,-5.56,-4.23,0.667,CB,DIO,150.0,PEDOT:PSS,PFN-Br,10.3,10.28,0.727,62.0,"[<rdkit.Chem.rdchem.Mol object at 0x7fdd149aeff0>, <rdkit.Chem.rdchem.Mol object at 0x7fdd149af3e0>, <rdkit.Chem.rdchem.Mol object at 0x7fdd149aece0>, <rdkit.Chem.rdchem.Mol object at 0x7fdd149adcb0>, <rdkit.Chem.rdchem.Mol object at 0x7fdd149a0580>, <rdkit.Chem.rdchem.Mol object at 0x7fdd149a04a0>, <rdkit.Chem.rdchem.Mol object at 0x7fdd149a0660>]","[<rdkit.Chem.rdchem.Mol object at 0x7fdd149aea40>, <rdkit.Chem.rdchem.Mol object at 0x7fdd149a06d0>, <rdkit.Chem.rdchem.Mol object at 0x7fdd149a05f0>, <rdkit.Chem.rdchem.Mol object at 0x7fdd149aef10>, <rdkit.Chem.rdchem.Mol object at 0x7fdd149a03c0>, <rdkit.Chem.rdchem.Mol object at 0x7fdd149a0d60>, <rdkit.Chem.rdchem.Mol object at 0x7fdd149a0970>, <rdkit.Chem.rdchem.Mol object at 0x7fdd149a10e0>]","[<rdkit.Chem.rdchem.Mol object at 0x7fdd149aeff0>, <rdkit.Chem.rdchem.Mol object at 0x7fdd149af3e0>, <rdkit.Chem.rdchem.Mol object at 0x7fdd149aece0>, <rdkit.Chem.rdchem.Mol object at 0x7fdd149adcb0>, <rdkit.Chem.rdchem.Mol object at 0x7fdd149a0580>, <rdkit.Chem.rdchem.Mol object at 0x7fdd149a04a0>, <rdkit.Chem.rdchem.Mol object at 0x7fdd149a0660>, '.', <rdkit.Chem.rdchem.Mol object at 0x7fdd149aea40>, <rdkit.Chem.rdchem.Mol object at 0x7fdd149a06d0>, <rdkit.Chem.rdchem.Mol object at 0x7fdd149a05f0>, <rdkit.Chem.rdchem.Mol object at 0x7fdd149aef10>, <rdkit.Chem.rdchem.Mol object at 0x7fdd149a03c0>, <rdkit.Chem.rdchem.Mol object at 0x7fdd149a0d60>, <rdkit.Chem.rdchem.Mol object at 0x7fdd149a0970>, <rdkit.Chem.rdchem.Mol object at 0x7fdd149a10e0>]","[0, 287, 288, 289, 290, 291, 292, 293, 1, 294, 295, 296, 297, 298, 299, 300, 301]"
J52,IEICO-4F,-5.218571428571429,-3.341428571428572,-5.309971428571429,-3.851028571428572,0.769,CB,_,130.0,MoOx,ZnO,8.2,8.2,0.704,56.9,"[<rdkit.Chem.rdchem.Mol object at 0x7fdd149afbc0>, <rdkit.Chem.rdchem.Mol object at 0x7fdd149af5a0>, <rdkit.Chem.rdchem.Mol object at 0x7fdd149a0900>, <rdkit.Chem.rdchem.Mol object at 0x7fdd149a1460>, <rdkit.Chem.rdchem.Mol object at 0x7fdd149a0350>, <rdkit.Chem.rdchem.Mol object at 0x7fdd149a1a80>]","[<rdkit.Chem.rdchem.Mol object at 0x7fdd149af610>, <rdkit.Chem.rdchem.Mol object at 0x7fdd149a0c10>, <rdkit.Chem.rdchem.Mol object at 0x7fdd149a14d0>, <rdkit.Chem.rdchem.Mol object at 0x7fdd149a1930>, <rdkit.Chem.rdchem.Mol object at 0x7fdd149a0f20>, <rdkit.Chem.rdchem.Mol object at 0x7fdd149a1070>, <rdkit.Chem.rdchem.Mol object at 0x7fdd149a1cb0>, <rdkit.Chem.rdchem.Mol object at 0x7fdd149a1310>]","[<rdkit.Chem.rdchem.Mol object at 0x7fdd149afbc0>, <rdkit.Chem.rdchem.Mol object at 0x7fdd149af5a0>, <rdkit.Chem.rdchem.Mol object at 0x7fdd149a0900>, <rdkit.Chem.rdchem.Mol object at 0x7fdd149a1460>, <rdkit.Chem.rdchem.Mol object at 0x7fdd149a0350>, <rdkit.Chem.rdchem.Mol object at 0x7fdd149a1a80>, '.', <rdkit.Chem.rdchem.Mol object at 0x7fdd149af610>, <rdkit.Chem.rdchem.Mol object at 0x7fdd149a0c10>, <rdkit.Chem.rdchem.Mol object at 0x7fdd149a14d0>, <rdkit.Chem.rdchem.Mol object at 0x7fdd149a1930>, <rdkit.Chem.rdchem.Mol object at 0x7fdd149a0f20>, <rdkit.Chem.rdchem.Mol object at 0x7fdd149a1070>, <rdkit.Chem.rdchem.Mol object at 0x7fdd149a1cb0>, <rdkit.Chem.rdchem.Mol object at 0x7fdd149a1310>]","[0, 0, 302, 303, 304, 305, 306, 307, 1, 308, 309, 310, 311, 312, 313, 314, 315]"
J52,i-IEICO-4F,-5.218571428571429,-3.341428571428572,-5.0183,-3.3307,1.0,CB,_,130.0,MoOx,ZnO,13.18,13.18,0.849,67.9,"[<rdkit.Chem.rdchem.Mol object at 0x7fdd149afca0>, <rdkit.Chem.rdchem.Mol object at 0x7fdd149a1ee0>, <rdkit.Chem.rdchem.Mol object at 0x7fdd149a1850>, <rdkit.Chem.rdchem.Mol object at 0x7fdd149a0430>, <rdkit.Chem.rdchem.Mol object at 0x7fdd149a0eb0>, <rdkit.Chem.rdchem.Mol object at 0x7fdd149a20a0>]","[<rdkit.Chem.rdchem.Mol object at 0x7fdd149a2260>, <rdkit.Chem.rdchem.Mol object at 0x7fdd149a19a0>, <rdkit.Chem.rdchem.Mol object at 0x7fdd149a0f90>, <rdkit.Chem.rdchem.Mol object at 0x7fdd149a1380>, <rdkit.Chem.rdchem.Mol object at 0x7fdd149a1a10>, <rdkit.Chem.rdchem.Mol object at 0x7fdd149a13f0>, <rdkit.Chem.rdchem.Mol object at 0x7fdd149a1e00>, <rdkit.Chem.rdchem.Mol object at 0x7fdd149a2030>]","[<rdkit.Chem.rdchem.Mol object at 0x7fdd149afca0>, <rdkit.Chem.rdchem.Mol object at 0x7fdd149a1ee0>, <rdkit.Chem.rdchem.Mol object at 0x7fdd149a1850>, <rdkit.Chem.rdchem.Mol object at 0x7fdd149a0430>, <rdkit.Chem.rdchem.Mol object at 0x7fdd149a0eb0>, <rdkit.Chem.rdchem.Mol object at 0x7fdd149a20a0>, '.', <rdkit.Chem.rdchem.Mol object at 0x7fdd149a2260>, <rdkit.Chem.rdchem.Mol object at 0x7fdd149a19a0>, <rdkit.Chem.rdchem.Mol object at 0x7fdd149a0f90>, <rdkit.Chem.rdchem.Mol object at 0x7fdd149a1380>, <rdkit.Chem.rdchem.Mol object at 0x7fdd149a1a10>, <rdkit.Chem.rdchem.Mol object at 0x7fdd149a13f0>, <rdkit.Chem.rdchem.Mol object at 0x7fdd149a1e00>, <rdkit.Chem.rdchem.Mol object at 0x7fdd149a2030>]","[0, 0, 316, 317, 318, 319, 320, 321, 1, 322, 323, 324, 325, 326, 327, 328, 329]"