Donor,Acceptor,HOMO_D_eV,LUMO_D_eV,HOMO_A_eV,LUMO_A_eV,D_A_ratio_m_m,solvent,solvent_additive,annealing_temperature,hole_contact_layer,electron_contact_layer,PCE_percent,calc_PCE_percent,Voc_V,FF_percent,Donor_BRICS,Acceptor_BRICS,DA_pair_BRICS,DA_tokenized_BRICS
PBZ,ITIC,-5.18,-3.22,-5.574146341463415,-3.915,0.8,CB,_,25.0,MoOx,ZnO,8.0,8.02,0.79,59.0,"[<rdkit.Chem.rdchem.Mol object at 0x7fdd147e3ca0>, <rdkit.Chem.rdchem.Mol object at 0x7fdd147e3220>, <rdkit.Chem.rdchem.Mol object at 0x7fdd147e2490>, <rdkit.Chem.rdchem.Mol object at 0x7fdd147e15b0>, <rdkit.Chem.rdchem.Mol object at 0x7fdd147e1af0>, <rdkit.Chem.rdchem.Mol object at 0x7fdd147e1d90>]","[<rdkit.Chem.rdchem.Mol object at 0x7fdd147e3e60>, <rdkit.Chem.rdchem.Mol object at 0x7fdd147e2ce0>, <rdkit.Chem.rdchem.Mol object at 0x7fdd147e03c0>, <rdkit.Chem.rdchem.Mol object at 0x7fdd147e3d10>, <rdkit.Chem.rdchem.Mol object at 0x7fdd147e3840>]","[<rdkit.Chem.rdchem.Mol object at 0x7fdd147e3ca0>, <rdkit.Chem.rdchem.Mol object at 0x7fdd147e3220>, <rdkit.Chem.rdchem.Mol object at 0x7fdd147e2490>, <rdkit.Chem.rdchem.Mol object at 0x7fdd147e15b0>, <rdkit.Chem.rdchem.Mol object at 0x7fdd147e1af0>, <rdkit.Chem.rdchem.Mol object at 0x7fdd147e1d90>, '.', <rdkit.Chem.rdchem.Mol object at 0x7fdd147e3e60>, <rdkit.Chem.rdchem.Mol object at 0x7fdd147e2ce0>, <rdkit.Chem.rdchem.Mol object at 0x7fdd147e03c0>, <rdkit.Chem.rdchem.Mol object at 0x7fdd147e3d10>, <rdkit.Chem.rdchem.Mol object at 0x7fdd147e3840>]","[0, 0, 0, 0, 0, 5779, 5780, 5781, 5782, 5783, 5784, 1, 5785, 5786, 5787, 5788, 5789]"
PFBZ,ITIC,-5.36,-3.42,-5.574146341463415,-3.915,0.8,CB,_,25.0,MoOx,ZnO,10.4,10.37,0.89,62.0,"[<rdkit.Chem.rdchem.Mol object at 0x7fdd147e2f10>, <rdkit.Chem.rdchem.Mol object at 0x7fdd147e38b0>, <rdkit.Chem.rdchem.Mol object at 0x7fdd147e20a0>, <rdkit.Chem.rdchem.Mol object at 0x7fdd147e2a40>, <rdkit.Chem.rdchem.Mol object at 0x7fdd147e3300>, <rdkit.Chem.rdchem.Mol object at 0x7fdd147e3990>, <rdkit.Chem.rdchem.Mol object at 0x7fdd147e1230>]","[<rdkit.Chem.rdchem.Mol object at 0x7fdd147e26c0>, <rdkit.Chem.rdchem.Mol object at 0x7fdd147e1770>, <rdkit.Chem.rdchem.Mol object at 0x7fdd147e3140>, <rdkit.Chem.rdchem.Mol object at 0x7fdd147e17e0>, <rdkit.Chem.rdchem.Mol object at 0x7fdd147e3530>]","[<rdkit.Chem.rdchem.Mol object at 0x7fdd147e2f10>, <rdkit.Chem.rdchem.Mol object at 0x7fdd147e38b0>, <rdkit.Chem.rdchem.Mol object at 0x7fdd147e20a0>, <rdkit.Chem.rdchem.Mol object at 0x7fdd147e2a40>, <rdkit.Chem.rdchem.Mol object at 0x7fdd147e3300>, <rdkit.Chem.rdchem.Mol object at 0x7fdd147e3990>, <rdkit.Chem.rdchem.Mol object at 0x7fdd147e1230>, '.', <rdkit.Chem.rdchem.Mol object at 0x7fdd147e26c0>, <rdkit.Chem.rdchem.Mol object at 0x7fdd147e1770>, <rdkit.Chem.rdchem.Mol object at 0x7fdd147e3140>, <rdkit.Chem.rdchem.Mol object at 0x7fdd147e17e0>, <rdkit.Chem.rdchem.Mol object at 0x7fdd147e3530>]","[0, 0, 0, 0, 5790, 5791, 5792, 5793, 5794, 5795, 5796, 1, 5797, 5798, 5799, 5800, 5801]"
J51,ITIC,-5.24,-3.056666666666666,-5.574146341463415,-3.915,0.5,CF,_,25.0,PEDOT:PSS,PDINO,7.03,7.21,0.84,61.0,"[<rdkit.Chem.rdchem.Mol object at 0x7fdd147e2260>, <rdkit.Chem.rdchem.Mol object at 0x7fdd147e3ed0>, <rdkit.Chem.rdchem.Mol object at 0x7fdd147e0740>, <rdkit.Chem.rdchem.Mol object at 0x7fdd147e36f0>, <rdkit.Chem.rdchem.Mol object at 0x7fdd147e3060>, <rdkit.Chem.rdchem.Mol object at 0x7fdd147e2ab0>]","[<rdkit.Chem.rdchem.Mol object at 0x7fdd147e2f80>, <rdkit.Chem.rdchem.Mol object at 0x7fdd147e0f20>, <rdkit.Chem.rdchem.Mol object at 0x7fdd147e3370>, <rdkit.Chem.rdchem.Mol object at 0x7fdd147e35a0>, <rdkit.Chem.rdchem.Mol object at 0x7fdd147e3a70>]","[<rdkit.Chem.rdchem.Mol object at 0x7fdd147e2260>, <rdkit.Chem.rdchem.Mol object at 0x7fdd147e3ed0>, <rdkit.Chem.rdchem.Mol object at 0x7fdd147e0740>, <rdkit.Chem.rdchem.Mol object at 0x7fdd147e36f0>, <rdkit.Chem.rdchem.Mol object at 0x7fdd147e3060>, <rdkit.Chem.rdchem.Mol object at 0x7fdd147e2ab0>, '.', <rdkit.Chem.rdchem.Mol object at 0x7fdd147e2f80>, <rdkit.Chem.rdchem.Mol object at 0x7fdd147e0f20>, <rdkit.Chem.rdchem.Mol object at 0x7fdd147e3370>, <rdkit.Chem.rdchem.Mol object at 0x7fdd147e35a0>, <rdkit.Chem.rdchem.Mol object at 0x7fdd147e3a70>]","[0, 0, 0, 0, 0, 5802, 5803, 5804, 5805, 5806, 5807, 1, 5808, 5809, 5810, 5811, 5812]"
J60,ITIC,-5.32,-3.08,-5.574146341463415,-3.915,1.0,CF,_,25.0,PEDOT:PSS,PDINO,5.17,5.17,0.92,57.45,"[<rdkit.Chem.rdchem.Mol object at 0x7fdd147e2810>, <rdkit.Chem.rdchem.Mol object at 0x7fdd147e29d0>, <rdkit.Chem.rdchem.Mol object at 0x7fdd147e3680>, <rdkit.Chem.rdchem.Mol object at 0x7fdd147e2b90>, <rdkit.Chem.rdchem.Mol object at 0x7fdd147e3c30>, <rdkit.Chem.rdchem.Mol object at 0x7fdd147ec2e0>, <rdkit.Chem.rdchem.Mol object at 0x7fdd147ec890>]","[<rdkit.Chem.rdchem.Mol object at 0x7fdd147e30d0>, <rdkit.Chem.rdchem.Mol object at 0x7fdd147e0900>, <rdkit.Chem.rdchem.Mol object at 0x7fdd147e3d80>, <rdkit.Chem.rdchem.Mol object at 0x7fdd147e2d50>, <rdkit.Chem.rdchem.Mol object at 0x7fdd147ec120>]","[<rdkit.Chem.rdchem.Mol object at 0x7fdd147e2810>, <rdkit.Chem.rdchem.Mol object at 0x7fdd147e29d0>, <rdkit.Chem.rdchem.Mol object at 0x7fdd147e3680>, <rdkit.Chem.rdchem.Mol object at 0x7fdd147e2b90>, <rdkit.Chem.rdchem.Mol object at 0x7fdd147e3c30>, <rdkit.Chem.rdchem.Mol object at 0x7fdd147ec2e0>, <rdkit.Chem.rdchem.Mol object at 0x7fdd147ec890>, '.', <rdkit.Chem.rdchem.Mol object at 0x7fdd147e30d0>, <rdkit.Chem.rdchem.Mol object at 0x7fdd147e0900>, <rdkit.Chem.rdchem.Mol object at 0x7fdd147e3d80>, <rdkit.Chem.rdchem.Mol object at 0x7fdd147e2d50>, <rdkit.Chem.rdchem.Mol object at 0x7fdd147ec120>]","[0, 0, 0, 0, 5813, 5814, 5815, 5816, 5817, 5818, 5819, 1, 5820, 5821, 5822, 5823, 5824]"
J61,ITIC,-5.303333333333334,-3.151666666666667,-5.574146341463415,-3.915,1.0,CF,_,25.0,PEDOT:PSS,PDINO,9.15,9.05,0.91,66.55,"[<rdkit.Chem.rdchem.Mol object at 0x7fdd147e3760>, <rdkit.Chem.rdchem.Mol object at 0x7fdd147e3df0>, <rdkit.Chem.rdchem.Mol object at 0x7fdd147e3f40>, <rdkit.Chem.rdchem.Mol object at 0x7fdd147ec5f0>, <rdkit.Chem.rdchem.Mol object at 0x7fdd147ec820>, <rdkit.Chem.rdchem.Mol object at 0x7fdd147ec510>, <rdkit.Chem.rdchem.Mol object at 0x7fdd147ecdd0>]","[<rdkit.Chem.rdchem.Mol object at 0x7fdd147e0e40>, <rdkit.Chem.rdchem.Mol object at 0x7fdd147eccf0>, <rdkit.Chem.rdchem.Mol object at 0x7fdd147e2650>, <rdkit.Chem.rdchem.Mol object at 0x7fdd147e3bc0>, <rdkit.Chem.rdchem.Mol object at 0x7fdd147ec3c0>]","[<rdkit.Chem.rdchem.Mol object at 0x7fdd147e3760>, <rdkit.Chem.rdchem.Mol object at 0x7fdd147e3df0>, <rdkit.Chem.rdchem.Mol object at 0x7fdd147e3f40>, <rdkit.Chem.rdchem.Mol object at 0x7fdd147ec5f0>, <rdkit.Chem.rdchem.Mol object at 0x7fdd147ec820>, <rdkit.Chem.rdchem.Mol object at 0x7fdd147ec510>, <rdkit.Chem.rdchem.Mol object at 0x7fdd147ecdd0>, '.', <rdkit.Chem.rdchem.Mol object at 0x7fdd147e0e40>, <rdkit.Chem.rdchem.Mol object at 0x7fdd147eccf0>, <rdkit.Chem.rdchem.Mol object at 0x7fdd147e2650>, <rdkit.Chem.rdchem.Mol object at 0x7fdd147e3bc0>, <rdkit.Chem.rdchem.Mol object at 0x7fdd147ec3c0>]","[0, 0, 0, 0, 5825, 5826, 5827, 5828, 5829, 5830, 5831, 1, 5832, 5833, 5834, 5835, 5836]"
PTB7,IEICO-4F,-5.175,-3.435,-5.309971428571429,-3.851028571428572,0.667,CB,DIO,25.0,PEDOT:PSS,PFN-Br,2.3,2.3,0.54,28.92,"[<rdkit.Chem.rdchem.Mol object at 0x7fdd147e33e0>, <rdkit.Chem.rdchem.Mol object at 0x7fdd147e3ae0>, <rdkit.Chem.rdchem.Mol object at 0x7fdd147ec350>, <rdkit.Chem.rdchem.Mol object at 0x7fdd147ec430>, <rdkit.Chem.rdchem.Mol object at 0x7fdd147eca50>]","[<rdkit.Chem.rdchem.Mol object at 0x7fdd147e31b0>, <rdkit.Chem.rdchem.Mol object at 0x7fdd147e2030>, <rdkit.Chem.rdchem.Mol object at 0x7fdd147ecc80>, <rdkit.Chem.rdchem.Mol object at 0x7fdd147e23b0>, <rdkit.Chem.rdchem.Mol object at 0x7fdd147e3610>, <rdkit.Chem.rdchem.Mol object at 0x7fdd147ec9e0>, <rdkit.Chem.rdchem.Mol object at 0x7fdd147ed460>, <rdkit.Chem.rdchem.Mol object at 0x7fdd147ed0e0>]","[<rdkit.Chem.rdchem.Mol object at 0x7fdd147e33e0>, <rdkit.Chem.rdchem.Mol object at 0x7fdd147e3ae0>, <rdkit.Chem.rdchem.Mol object at 0x7fdd147ec350>, <rdkit.Chem.rdchem.Mol object at 0x7fdd147ec430>, <rdkit.Chem.rdchem.Mol object at 0x7fdd147eca50>, '.', <rdkit.Chem.rdchem.Mol object at 0x7fdd147e31b0>, <rdkit.Chem.rdchem.Mol object at 0x7fdd147e2030>, <rdkit.Chem.rdchem.Mol object at 0x7fdd147ecc80>, <rdkit.Chem.rdchem.Mol object at 0x7fdd147e23b0>, <rdkit.Chem.rdchem.Mol object at 0x7fdd147e3610>, <rdkit.Chem.rdchem.Mol object at 0x7fdd147ec9e0>, <rdkit.Chem.rdchem.Mol object at 0x7fdd147ed460>, <rdkit.Chem.rdchem.Mol object at 0x7fdd147ed0e0>]","[0, 0, 0, 5837, 5838, 5839, 5840, 5841, 1, 5842, 5843, 5844, 5845, 5846, 5847, 5848, 5849]"
PTB7-Th,IEICO-4F,-5.204782608695651,-3.5391891891891896,-5.309971428571429,-3.851028571428572,0.667,CB,CN,25.0,PEDOT:PSS,PFN-Br,11.6,11.6,0.72,69.41,"[<rdkit.Chem.rdchem.Mol object at 0x7fdd147e2880>, <rdkit.Chem.rdchem.Mol object at 0x7fdd147e06d0>, <rdkit.Chem.rdchem.Mol object at 0x7fdd147ed620>, <rdkit.Chem.rdchem.Mol object at 0x7fdd147ed000>, <rdkit.Chem.rdchem.Mol object at 0x7fdd147ecf20>, <rdkit.Chem.rdchem.Mol object at 0x7fdd147ed310>, <rdkit.Chem.rdchem.Mol object at 0x7fdd147ec040>]","[<rdkit.Chem.rdchem.Mol object at 0x7fdd147e2420>, <rdkit.Chem.rdchem.Mol object at 0x7fdd147ec4a0>, <rdkit.Chem.rdchem.Mol object at 0x7fdd147ed2a0>, <rdkit.Chem.rdchem.Mol object at 0x7fdd147ed1c0>, <rdkit.Chem.rdchem.Mol object at 0x7fdd147ec200>, <rdkit.Chem.rdchem.Mol object at 0x7fdd147ec580>, <rdkit.Chem.rdchem.Mol object at 0x7fdd147edaf0>, <rdkit.Chem.rdchem.Mol object at 0x7fdd147ed540>]","[<rdkit.Chem.rdchem.Mol object at 0x7fdd147e2880>, <rdkit.Chem.rdchem.Mol object at 0x7fdd147e06d0>, <rdkit.Chem.rdchem.Mol object at 0x7fdd147ed620>, <rdkit.Chem.rdchem.Mol object at 0x7fdd147ed000>, <rdkit.Chem.rdchem.Mol object at 0x7fdd147ecf20>, <rdkit.Chem.rdchem.Mol object at 0x7fdd147ed310>, <rdkit.Chem.rdchem.Mol object at 0x7fdd147ec040>, '.', <rdkit.Chem.rdchem.Mol object at 0x7fdd147e2420>, <rdkit.Chem.rdchem.Mol object at 0x7fdd147ec4a0>, <rdkit.Chem.rdchem.Mol object at 0x7fdd147ed2a0>, <rdkit.Chem.rdchem.Mol object at 0x7fdd147ed1c0>, <rdkit.Chem.rdchem.Mol object at 0x7fdd147ec200>, <rdkit.Chem.rdchem.Mol object at 0x7fdd147ec580>, <rdkit.Chem.rdchem.Mol object at 0x7fdd147edaf0>, <rdkit.Chem.rdchem.Mol object at 0x7fdd147ed540>]","[0, 5850, 5851, 5852, 5853, 5854, 5855, 5856, 1, 5857, 5858, 5859, 5860, 5861, 5862, 5863, 5864]"
PBO,ITIC,-5.47,-3.67,-5.574146341463415,-3.915,0.5,DCB,DIO,25.0,PEDOT:PSS,LiF,7.1,7.1,0.92,54.0,"[<rdkit.Chem.rdchem.Mol object at 0x7fdd147eda10>, <rdkit.Chem.rdchem.Mol object at 0x7fdd147ed7e0>, <rdkit.Chem.rdchem.Mol object at 0x7fdd147edd20>, <rdkit.Chem.rdchem.Mol object at 0x7fdd147ec7b0>, <rdkit.Chem.rdchem.Mol object at 0x7fdd147ecb30>, <rdkit.Chem.rdchem.Mol object at 0x7fdd147ed690>, <rdkit.Chem.rdchem.Mol object at 0x7fdd147ed230>, <rdkit.Chem.rdchem.Mol object at 0x7fdd147ec0b0>, <rdkit.Chem.rdchem.Mol object at 0x7fdd147ed380>]","[<rdkit.Chem.rdchem.Mol object at 0x7fdd147ec270>, <rdkit.Chem.rdchem.Mol object at 0x7fdd147ec660>, <rdkit.Chem.rdchem.Mol object at 0x7fdd147eceb0>, <rdkit.Chem.rdchem.Mol object at 0x7fdd147ed8c0>, <rdkit.Chem.rdchem.Mol object at 0x7fdd147ed3f0>]","[<rdkit.Chem.rdchem.Mol object at 0x7fdd147eda10>, <rdkit.Chem.rdchem.Mol object at 0x7fdd147ed7e0>, <rdkit.Chem.rdchem.Mol object at 0x7fdd147edd20>, <rdkit.Chem.rdchem.Mol object at 0x7fdd147ec7b0>, <rdkit.Chem.rdchem.Mol object at 0x7fdd147ecb30>, <rdkit.Chem.rdchem.Mol object at 0x7fdd147ed690>, <rdkit.Chem.rdchem.Mol object at 0x7fdd147ed230>, <rdkit.Chem.rdchem.Mol object at 0x7fdd147ec0b0>, <rdkit.Chem.rdchem.Mol object at 0x7fdd147ed380>, '.', <rdkit.Chem.rdchem.Mol object at 0x7fdd147ec270>, <rdkit.Chem.rdchem.Mol object at 0x7fdd147ec660>, <rdkit.Chem.rdchem.Mol object at 0x7fdd147eceb0>, <rdkit.Chem.rdchem.Mol object at 0x7fdd147ed8c0>, <rdkit.Chem.rdchem.Mol object at 0x7fdd147ed3f0>]","[0, 0, 5865, 5866, 5867, 5868, 5869, 5870, 5871, 5872, 5873, 1, 5874, 5875, 5876, 5877, 5878]"
PBDB-T,TTIC-M,-5.297714285714285,-3.4170000000000003,-5.49,-4.03,1.0,CB,_,25.0,PEDOT:PSS,PDINO,9.85,9.97,0.83,63.0,"[<rdkit.Chem.rdchem.Mol object at 0x7fdd147e3450>, <rdkit.Chem.rdchem.Mol object at 0x7fdd147eda80>, <rdkit.Chem.rdchem.Mol object at 0x7fdd147ed5b0>, <rdkit.Chem.rdchem.Mol object at 0x7fdd147edee0>, <rdkit.Chem.rdchem.Mol object at 0x7fdd147ee960>]","[<rdkit.Chem.rdchem.Mol object at 0x7fdd147eeb90>, <rdkit.Chem.rdchem.Mol object at 0x7fdd147ee110>, <rdkit.Chem.rdchem.Mol object at 0x7fdd147ecc10>, <rdkit.Chem.rdchem.Mol object at 0x7fdd147ee0a0>, <rdkit.Chem.rdchem.Mol object at 0x7fdd147ece40>]","[<rdkit.Chem.rdchem.Mol object at 0x7fdd147e3450>, <rdkit.Chem.rdchem.Mol object at 0x7fdd147eda80>, <rdkit.Chem.rdchem.Mol object at 0x7fdd147ed5b0>, <rdkit.Chem.rdchem.Mol object at 0x7fdd147edee0>, <rdkit.Chem.rdchem.Mol object at 0x7fdd147ee960>, '.', <rdkit.Chem.rdchem.Mol object at 0x7fdd147eeb90>, <rdkit.Chem.rdchem.Mol object at 0x7fdd147ee110>, <rdkit.Chem.rdchem.Mol object at 0x7fdd147ecc10>, <rdkit.Chem.rdchem.Mol object at 0x7fdd147ee0a0>, <rdkit.Chem.rdchem.Mol object at 0x7fdd147ece40>]","[0, 0, 0, 0, 0, 0, 5879, 5880, 5881, 5882, 5883, 1, 5884, 5885, 5886, 5887, 5888]"
PBDB-T,TTIC,-5.297714285714285,-3.4170000000000003,-5.54,-4.109999999999999,1.0,CB,_,25.0,PEDOT:PSS,PDINO,10.73,10.87,0.8,66.0,"[<rdkit.Chem.rdchem.Mol object at 0x7fdd147ec970>, <rdkit.Chem.rdchem.Mol object at 0x7fdd147ee490>, <rdkit.Chem.rdchem.Mol object at 0x7fdd147ee500>, <rdkit.Chem.rdchem.Mol object at 0x7fdd147ecba0>, <rdkit.Chem.rdchem.Mol object at 0x7fdd147eee30>]","[<rdkit.Chem.rdchem.Mol object at 0x7fdd147ef060>, <rdkit.Chem.rdchem.Mol object at 0x7fdd147ecac0>, <rdkit.Chem.rdchem.Mol object at 0x7fdd147ede00>, <rdkit.Chem.rdchem.Mol object at 0x7fdd147ecf90>, <rdkit.Chem.rdchem.Mol object at 0x7fdd147ee9d0>]","[<rdkit.Chem.rdchem.Mol object at 0x7fdd147ec970>, <rdkit.Chem.rdchem.Mol object at 0x7fdd147ee490>, <rdkit.Chem.rdchem.Mol object at 0x7fdd147ee500>, <rdkit.Chem.rdchem.Mol object at 0x7fdd147ecba0>, <rdkit.Chem.rdchem.Mol object at 0x7fdd147eee30>, '.', <rdkit.Chem.rdchem.Mol object at 0x7fdd147ef060>, <rdkit.Chem.rdchem.Mol object at 0x7fdd147ecac0>, <rdkit.Chem.rdchem.Mol object at 0x7fdd147ede00>, <rdkit.Chem.rdchem.Mol object at 0x7fdd147ecf90>, <rdkit.Chem.rdchem.Mol object at 0x7fdd147ee9d0>]","[0, 0, 0, 0, 0, 0, 5889, 5890, 5891, 5892, 5893, 1, 5894, 5895, 5896, 5897, 5898]"
PBDB-T,TTIC-F,-5.297714285714285,-3.4170000000000003,-5.34,-3.88,1.0,CB,_,25.0,PEDOT:PSS,PDINO,9.38,9.51,0.71,63.0,"[<rdkit.Chem.rdchem.Mol object at 0x7fdd147edc40>, <rdkit.Chem.rdchem.Mol object at 0x7fdd147eec00>, <rdkit.Chem.rdchem.Mol object at 0x7fdd147ee650>, <rdkit.Chem.rdchem.Mol object at 0x7fdd147edd90>, <rdkit.Chem.rdchem.Mol object at 0x7fdd147ef300>]","[<rdkit.Chem.rdchem.Mol object at 0x7fdd147ef530>, <rdkit.Chem.rdchem.Mol object at 0x7fdd147ec900>, <rdkit.Chem.rdchem.Mol object at 0x7fdd147ee260>, <rdkit.Chem.rdchem.Mol object at 0x7fdd147edcb0>, <rdkit.Chem.rdchem.Mol object at 0x7fdd147eeea0>]","[<rdkit.Chem.rdchem.Mol object at 0x7fdd147edc40>, <rdkit.Chem.rdchem.Mol object at 0x7fdd147eec00>, <rdkit.Chem.rdchem.Mol object at 0x7fdd147ee650>, <rdkit.Chem.rdchem.Mol object at 0x7fdd147edd90>, <rdkit.Chem.rdchem.Mol object at 0x7fdd147ef300>, '.', <rdkit.Chem.rdchem.Mol object at 0x7fdd147ef530>, <rdkit.Chem.rdchem.Mol object at 0x7fdd147ec900>, <rdkit.Chem.rdchem.Mol object at 0x7fdd147ee260>, <rdkit.Chem.rdchem.Mol object at 0x7fdd147edcb0>, <rdkit.Chem.rdchem.Mol object at 0x7fdd147eeea0>]","[0, 0, 0, 0, 0, 0, 5899, 5900, 5901, 5902, 5903, 1, 5904, 5905, 5906, 5907, 5908]"
J71,ITIC,-5.353333333333333,-3.4318181818181825,-5.574146341463415,-3.915,0.8,CB,_,25.0,MoOx,ZnO,9.03,9.05,0.96,63.63,"[<rdkit.Chem.rdchem.Mol object at 0x7fdd147ee570>, <rdkit.Chem.rdchem.Mol object at 0x7fdd147ef450>, <rdkit.Chem.rdchem.Mol object at 0x7fdd147edb60>, <rdkit.Chem.rdchem.Mol object at 0x7fdd147ed150>, <rdkit.Chem.rdchem.Mol object at 0x7fdd147edf50>, <rdkit.Chem.rdchem.Mol object at 0x7fdd147ee7a0>]","[<rdkit.Chem.rdchem.Mol object at 0x7fdd147eece0>, <rdkit.Chem.rdchem.Mol object at 0x7fdd147ef220>, <rdkit.Chem.rdchem.Mol object at 0x7fdd147ef1b0>, <rdkit.Chem.rdchem.Mol object at 0x7fdd147ed850>, <rdkit.Chem.rdchem.Mol object at 0x7fdd147ed9a0>]","[<rdkit.Chem.rdchem.Mol object at 0x7fdd147ee570>, <rdkit.Chem.rdchem.Mol object at 0x7fdd147ef450>, <rdkit.Chem.rdchem.Mol object at 0x7fdd147edb60>, <rdkit.Chem.rdchem.Mol object at 0x7fdd147ed150>, <rdkit.Chem.rdchem.Mol object at 0x7fdd147edf50>, <rdkit.Chem.rdchem.Mol object at 0x7fdd147ee7a0>, '.', <rdkit.Chem.rdchem.Mol object at 0x7fdd147eece0>, <rdkit.Chem.rdchem.Mol object at 0x7fdd147ef220>, <rdkit.Chem.rdchem.Mol object at 0x7fdd147ef1b0>, <rdkit.Chem.rdchem.Mol object at 0x7fdd147ed850>, <rdkit.Chem.rdchem.Mol object at 0x7fdd147ed9a0>]","[0, 0, 0, 0, 0, 5909, 5910, 5911, 5912, 5913, 5914, 1, 5915, 5916, 5917, 5918, 5919]"
FTAZ,ITIC,-5.43,-3.3200000000000003,-5.574146341463415,-3.915,0.667,CF,_,25.0,MoOx,ZnO,8.77,8.83,0.911,58.0,"[<rdkit.Chem.rdchem.Mol object at 0x7fdd147ee1f0>, <rdkit.Chem.rdchem.Mol object at 0x7fdd147ed070>, <rdkit.Chem.rdchem.Mol object at 0x7fdd147ef680>, <rdkit.Chem.rdchem.Mol object at 0x7fdd147ee730>, <rdkit.Chem.rdchem.Mol object at 0x7fdd147ef610>, <rdkit.Chem.rdchem.Mol object at 0x7fdd147ed700>]","[<rdkit.Chem.rdchem.Mol object at 0x7fdd147ee030>, <rdkit.Chem.rdchem.Mol object at 0x7fdd147ed930>, <rdkit.Chem.rdchem.Mol object at 0x7fdd147eeab0>, <rdkit.Chem.rdchem.Mol object at 0x7fdd147eef80>, <rdkit.Chem.rdchem.Mol object at 0x7fdd147ef6f0>]","[<rdkit.Chem.rdchem.Mol object at 0x7fdd147ee1f0>, <rdkit.Chem.rdchem.Mol object at 0x7fdd147ed070>, <rdkit.Chem.rdchem.Mol object at 0x7fdd147ef680>, <rdkit.Chem.rdchem.Mol object at 0x7fdd147ee730>, <rdkit.Chem.rdchem.Mol object at 0x7fdd147ef610>, <rdkit.Chem.rdchem.Mol object at 0x7fdd147ed700>, '.', <rdkit.Chem.rdchem.Mol object at 0x7fdd147ee030>, <rdkit.Chem.rdchem.Mol object at 0x7fdd147ed930>, <rdkit.Chem.rdchem.Mol object at 0x7fdd147eeab0>, <rdkit.Chem.rdchem.Mol object at 0x7fdd147eef80>, <rdkit.Chem.rdchem.Mol object at 0x7fdd147ef6f0>]","[0, 0, 0, 0, 0, 5920, 5921, 5922, 5923, 5924, 5925, 1, 5926, 5927, 5928, 5929, 5930]"
HTAZ,ITIC,-5.42,-3.44,-5.574146341463415,-3.915,0.667,CF,_,25.0,MoOx,ZnO,4.5,4.52,0.851,40.8,"[<rdkit.Chem.rdchem.Mol object at 0x7fdd147edbd0>, <rdkit.Chem.rdchem.Mol object at 0x7fdd147ee3b0>, <rdkit.Chem.rdchem.Mol object at 0x7fdd147ed770>, <rdkit.Chem.rdchem.Mol object at 0x7fdd147ee6c0>, <rdkit.Chem.rdchem.Mol object at 0x7fdd147eec70>, <rdkit.Chem.rdchem.Mol object at 0x7fdd147ee810>]","[<rdkit.Chem.rdchem.Mol object at 0x7fdd147ef370>, <rdkit.Chem.rdchem.Mol object at 0x7fdd147ee5e0>, <rdkit.Chem.rdchem.Mol object at 0x7fdd147eeb20>, <rdkit.Chem.rdchem.Mol object at 0x7fdd147ef4c0>, <rdkit.Chem.rdchem.Mol object at 0x7fdd147ef8b0>]","[<rdkit.Chem.rdchem.Mol object at 0x7fdd147edbd0>, <rdkit.Chem.rdchem.Mol object at 0x7fdd147ee3b0>, <rdkit.Chem.rdchem.Mol object at 0x7fdd147ed770>, <rdkit.Chem.rdchem.Mol object at 0x7fdd147ee6c0>, <rdkit.Chem.rdchem.Mol object at 0x7fdd147eec70>, <rdkit.Chem.rdchem.Mol object at 0x7fdd147ee810>, '.', <rdkit.Chem.rdchem.Mol object at 0x7fdd147ef370>, <rdkit.Chem.rdchem.Mol object at 0x7fdd147ee5e0>, <rdkit.Chem.rdchem.Mol object at 0x7fdd147eeb20>, <rdkit.Chem.rdchem.Mol object at 0x7fdd147ef4c0>, <rdkit.Chem.rdchem.Mol object at 0x7fdd147ef8b0>]","[0, 0, 0, 0, 0, 5931, 5932, 5933, 5934, 5935, 5936, 1, 5937, 5938, 5939, 5940, 5941]"