DA_mordred_pca,HOMO_D_eV,LUMO_D_eV,HOMO_A_eV,LUMO_A_eV,D_A_ratio_m_m,solvent,solvent_additive,annealing_temperature,hole_contact_layer,electron_contact_layer,PCE_percent,calc_PCE_percent,Voc_V,Jsc_mA_cm_pow_neg2,FF_percent
"[-40379.550777858196, 56004.069127593044, -10651.726564434246, -16787.81031422943, -4899.992121591016, -824.7283886742232, 3213.3355032253107, -1470.288885595245, 254.4377968009814, -1413.1146630484025, -524.4083602292874, -562.997720813155, -39.53950048797216, -237.61809197268883, 180.52903723581315, -190.73776488072147, -330.80306712396464, 99.72719854979664, -38.288725474699014, -15.193302786029136, -8.532246059522224, 145.04616544768794, 14.962058909511939, 123.04398183642466, 62.852427505583, -16.118058857090944, -46.56859833906233, -0.5575523560657274, -6.36498680353148, 16.394816676055783, 87.85016416866046, 16.04209532118321, 6.728058072640266, 31.819933043206213, 7.247524520540111, -16.595924642037062, 22.429503825143726, -34.30752403737112, -22.117717401179593, -42.53762441373334, 28.137558748772225, 2.22131123168802, 10.678808593591533, -14.694404223731631, 5.672198985063375, -1.6746084012166627, 3.5448396296069937, 4.439322415982939, 2.361717827741181, -7.79091708674293, -7.799464018746011, -0.06700113902227045, 6.275440131612939, 1.6816512012129223, 7.516755854741788, -1.3196602414838896, -1.599423863335157, 0.8523744266797966, 6.5919953227931884, -1.9930726417356155, 2.4730446865395805, -4.86740547502367, -1.6841737660247347, 1.6586533064853555, -0.8074568835944604, -3.2367193878033773, -2.1849438483133383, 0.21206456314353517, 3.0809245279681186, -0.19938566599949326, -1.7618285128175284, -0.05980224728117811, 2.9080797958751314, -0.2649007688640488, -1.4904110395030248, 0.9599817863349642, -2.062231625754352, 0.18250954513997886, 1.0587154103407115, -1.8898659848741381, 0.0828903647949275, 1.32594414559665, 0.358456040618492, -0.08392299601673514, -0.7357168466038431, 0.5569749078821111, 0.46639264895316324, 0.8106144831234943, 0.0036309183357334796, 1.615344045763857, -0.8126052081822834, 0.008561986029853585, -0.4374767812936806, -0.3645528964956295, 0.3530253133670438, 0.01993774228438383, 0.21970565142439824, 0.05638899422120147, 0.33798152978198814, 0.10894087739224645, -0.2310380143835129, 0.5971144474169652, -0.0568340402989147, -0.14432609544563313, 0.09196812189175685, -0.12801448064831078, 0.08893783919220155, 0.08315346312763339, 0.2048785099106445, -0.21622713001348914, 0.12256202799790294, 0.10820379300091787, 0.1865751938394018, -0.1645796925672459, 0.09908524542788655, -0.09534185566811182, 0.05572017504187965, 0.08364897859544218, 0.04476089133255723, -0.03247571883968092, 0.01741547505732921, -0.03798876088742631, -0.039233448534753634, -0.00874733060879862, 0.018554743515469596, 0.022867216035734828, 0.052540313824602336, -0.04783066929916302, 276729.45622502925, 149611.40223151562, -1874.4839797363256, -23839.403908224598, -816.5055477838177, 18978.525988160432, -4473.518168220908, -5427.5176428766545, -1921.8377392632792, -3108.311086949482, -15.926188717507102, 2341.420458197211, -1511.233475162122, -836.4282565363737, 835.1867907432451, -1099.2139584210054, -699.955122522563, -808.3557750353093, 1229.135103001542, -79.42014182916114, 1380.9196602294069, 1415.910425617, 337.15216146336525, -59.02890856707586, -7.362370757674398, 407.67696634202457, -784.8588179673407, 27.288261475643793, -216.75896860066723, -660.45679002518, -128.34508971844068, -281.1842985030056, 35.31057100847852, 392.6914100248125, -198.21735179525217, 265.39572336233755, -252.12293695868914, -54.464641107619855, 118.29833599615384, 71.34114126768134, 0.8044601768698385, 231.58809530558267, -227.24822685793174, 198.21525503833624, -77.57536465164591, -7.063961465613204, -90.86907188703714, -6.365983365764748, -18.23130395468843, 42.063984341683096, -53.223864509536554, -98.87567032881475, 10.223240853034895, -47.745377126189226, 12.054002883163434, 7.244655756868497, 95.11931369426762, -30.18718620056046, -20.53186949646556, -5.634665623981164, -48.90618419473671, 20.38963723330403, 33.45119828386356, 19.627590602844492, -28.25259592189883, -0.33875033642227237, 12.72585981943173, -5.50164483838163, -23.880082071793282, -3.2993740165824477, 18.3205671617512, 7.057830435028206, 15.291711818329276, -24.527210938892622, -19.54830303817532, -4.332013022497733, -7.743170274031215, 4.92422077201762, -4.250243247461384, 11.088561372968371, -2.269355591995133, 10.211305295855226, 8.114914505868157, -2.517611789362576, 4.882148064430538, 13.368054924805776, -0.6489328812601514, -3.7169693393518344, -6.436462876678785, -8.792013429959866, 0.1309588786006941, -2.1647805827649336, 2.9963757977339185, 1.396223080579972, 2.534077863957407, 1.8134551336715532, -3.599003154805203, -3.1131898322937985, -0.2059442633662627, -0.1913558561589639, -5.432582067277998, -0.0646692864332934, -6.580085259034462, 3.7766010957315785, -3.338691406073522, -1.2835291100558024, 2.0355411552231963, -0.7162220437799505, 2.710210237538199, -0.8015574516800683, 3.1241896778592206, 0.259403677699396, -1.8645093402275563, 0.21053023375293378, -0.2139679941899466, 2.7939261673744795, 0.6056405063156376, -2.0023132604907232, 0.5677847113936139, -0.016037891599012255, -3.088572321385503, 2.3727288417554213, 0.4930364395444897, -0.8291198915828346, 2.844075585480571, 2.46401831738212, 0.425255241567811, 1.2559108548140472]",-5.353333333333333,-3.4318181818181825,-5.24,-3.86,0.714,CF,_,25.0,PEDOT:PSS,PDINO,11.05,11.05,0.9,17.77,69.1
"[-96218.45766618998, 38190.55941397739, 9341.19863978244, -298.0321681723599, 3837.039845288656, -633.0815150821412, -1318.980794355729, 952.285808193773, 528.6042339012306, -265.75996339509254, 85.60403763240663, 327.51410203292335, 339.9238825739942, -217.3938336123946, 80.63195135367053, -89.32083633853233, 32.19492584684396, -21.519530699055707, -3.6266113552724115, -73.04368468656011, 86.79421267883791, 28.9157151412623, 61.36551771993493, -20.29937758864763, -20.5145225649866, 1.7418865694839667, -22.377181673057002, 12.371971410300219, 34.95291732805864, 10.187903617561325, 15.16604348820858, 8.612060636243209, -1.1743635221400766, 7.0376682218726625, -4.093627003889395, 9.922048209550361, -15.554840299560915, -5.613674452998811, -0.2972665085945745, 4.368352481075529, -3.6043195792310403, 1.354200703685919, 2.8516893216669104, -4.255469010620061, 8.299974464104451, 1.2791418187815111, 1.2654639155740988, -2.171801897186288, 0.7563528622149089, 1.6309678283868045, 0.8461705305940708, 3.200150728577338, 4.514637663770485, 2.047832060332592, 0.988495732690156, 3.0209744065138135, -1.0787642655477623, -0.5848165573459294, 0.7450505682325215, 0.7138952097940852, -0.4513392507860554, 0.44000043161623736, 0.9076636698868725, -0.7553614212014921, -1.1367214236829248, 1.4883333004282742, -0.6534390261587824, -0.2020478861539523, 0.5979438493412772, 0.35044047212350127, 0.5920200016964907, -0.4545510567545348, 1.2436977886366634, 0.06188974879205844, 0.28770923066137755, 0.34025436763747585, 0.054350949740208376, 0.15963437295462057, -0.5109982693033068, 0.3735134387368202, 0.6870145153430531, 0.38216412404326583, -0.20553217795980494, -0.08297866327442271, -0.09481622405384194, -0.0074888306561717854, 0.442508262678758, 0.06098427500299941, -0.4139541096843904, 0.14832844029545988, -0.294554145147611, 0.015892796356977712, 0.1548609075275289, -0.005654655004061704, 0.07842930267586645, -0.20841896255037717, 0.07855635365402769, 0.01820150849557578, 0.012441639298426566, -0.05940224021880214, 0.12084591158474112, 0.026787833651969892, 0.019668535058581682, 0.05537380493890609, -0.03933624965050253, 0.009307974571203914, -0.023474896973407267, 0.020049719383548492, 0.003215210697313786, -0.04194589694978035, 0.04089452902605473, 0.02749361263995076, -0.07262298298187164, 0.015379054954234306, 0.0506532373375812, 0.01506994111025417, -0.02377975685210143, 0.009711782809699865, -0.04845640783987859, 0.03322037544939782, -0.008444174408285043, -0.002255075440015908, 0.022455666638478533, -0.005795103590370054, 0.02421124183525336, 0.01760123567103644, -0.016655303062377946, 0.018813816162650987, 276729.45622502925, 149611.40223151562, -1874.4839797363256, -23839.403908224598, -816.5055477838177, 18978.525988160432, -4473.518168220908, -5427.5176428766545, -1921.8377392632792, -3108.311086949482, -15.926188717507102, 2341.420458197211, -1511.233475162122, -836.4282565363737, 835.1867907432451, -1099.2139584210054, -699.955122522563, -808.3557750353093, 1229.135103001542, -79.42014182916114, 1380.9196602294069, 1415.910425617, 337.15216146336525, -59.02890856707586, -7.362370757674398, 407.67696634202457, -784.8588179673407, 27.288261475643793, -216.75896860066723, -660.45679002518, -128.34508971844068, -281.1842985030056, 35.31057100847852, 392.6914100248125, -198.21735179525217, 265.39572336233755, -252.12293695868914, -54.464641107619855, 118.29833599615384, 71.34114126768134, 0.8044601768698385, 231.58809530558267, -227.24822685793174, 198.21525503833624, -77.57536465164591, -7.063961465613204, -90.86907188703714, -6.365983365764748, -18.23130395468843, 42.063984341683096, -53.223864509536554, -98.87567032881475, 10.223240853034895, -47.745377126189226, 12.054002883163434, 7.244655756868497, 95.11931369426762, -30.18718620056046, -20.53186949646556, -5.634665623981164, -48.90618419473671, 20.38963723330403, 33.45119828386356, 19.627590602844492, -28.25259592189883, -0.33875033642227237, 12.72585981943173, -5.50164483838163, -23.880082071793282, -3.2993740165824477, 18.3205671617512, 7.057830435028206, 15.291711818329276, -24.527210938892622, -19.54830303817532, -4.332013022497733, -7.743170274031215, 4.92422077201762, -4.250243247461384, 11.088561372968371, -2.269355591995133, 10.211305295855226, 8.114914505868157, -2.517611789362576, 4.882148064430538, 13.368054924805776, -0.6489328812601514, -3.7169693393518344, -6.436462876678785, -8.792013429959866, 0.1309588786006941, -2.1647805827649336, 2.9963757977339185, 1.396223080579972, 2.534077863957407, 1.8134551336715532, -3.599003154805203, -3.1131898322937985, -0.2059442633662627, -0.1913558561589639, -5.432582067277998, -0.0646692864332934, -6.580085259034462, 3.7766010957315785, -3.338691406073522, -1.2835291100558024, 2.0355411552231963, -0.7162220437799505, 2.710210237538199, -0.8015574516800683, 3.1241896778592206, 0.259403677699396, -1.8645093402275563, 0.21053023375293378, -0.2139679941899466, 2.7939261673744795, 0.6056405063156376, -2.0023132604907232, 0.5677847113936139, -0.016037891599012255, -3.088572321385503, 2.3727288417554213, 0.4930364395444897, -0.8291198915828346, 2.844075585480571, 2.46401831738212, 0.425255241567811, 1.2559108548140472]",-5.297714285714285,-3.4170000000000003,-5.24,-3.86,1.25,CF,_,100.0,PEDOT:PSS,PDINO,9.92,9.92,0.85,16.86,69.2
"[-97646.34332091674, -117638.09400747594, -8752.642441163658, 5396.501564458496, -2504.647233239907, 2663.4298950644607, -313.10818828471656, -5995.645181580286, 1475.1886173719145, 405.53475781267616, -213.68719388843874, 483.2513202882251, -1163.7124016702473, -1057.7554084942744, 2515.379019767968, -1037.2885995254535, -169.7123249680186, -262.5012039574251, 618.8134413870396, -436.4064014824818, -98.21254433265139, 448.5939727154209, -117.6773301085235, -302.92213806456857, -356.9948174250116, -278.47887101845424, 498.29414842045577, 240.81363889385585, 71.6506461585895, 100.48878933312969, -81.56730217598742, -88.66448993750836, 284.70089347378905, 345.40585334263983, -245.36846289614527, 166.32176945974794, -59.172262224607934, 122.28854157057889, 91.6071596507268, 52.170022888510985, -24.203925754638988, 97.61972515291703, 10.803907173144239, -94.68404460541745, 131.09524044839318, 137.306945349439, -17.500337371323084, -38.49764573862436, 54.439217431604064, 25.870270942905705, -0.358325626925847, 29.533647794478576, -63.79501140419961, 48.24771977406918, 6.848089729075689, -5.285675890822574, -26.42570948015408, -8.502460664733086, 23.603606245244976, -6.180023300673497, -25.82891461792116, 9.046023122736685, -3.785659177819241, -7.880566136136707, -2.1882720953156998, -10.378413710369692, -11.801983316388657, -14.508564419271746, -2.5775369225871856, -16.071505162846748, 4.0868477332358, -16.688286650642382, 2.5572972033947483, -1.6451933221957873, -2.4847325690484965, -7.402965437818544, -0.94969951152558, -5.709357261995405, -1.4257669310953545, -7.818104815594353, 0.4562270711519716, -6.030299175806903, 0.3348024614836902, 1.727555106156288, -1.9682413085566566, 5.660031279108466, -2.8505246457248776, -3.464243439789726, 0.7467395369602716, -1.1858631395171777, 0.9507910928873287, -1.2636409443719572, 2.651359968714715, 1.7916939760292507, 3.5005874293130326, 4.620992618008728, -1.5640096986593433, 0.27151613576404543, 1.5236309157784262, 0.28937432608466235, -2.7138963289672233, -0.3420101362282937, -0.0558620715274003, -0.38710278818157917, -0.35170767489857635, 0.3077098894341148, -1.2486091350463013, -1.0657316547299072, -0.4196818505340847, -1.2081573512752453, -0.5739272006713989, -0.006109098185092421, -1.4835404779396564, -1.2312170274895742, -0.21129975098268972, 0.39433998989824204, -0.11760519174930906, 0.07121154631159943, -0.44095525922497103, 0.3750770564822963, 0.43331487090906506, -0.13715505820034224, 0.05215252792291736, -0.06781088512105171, 0.2981846522480822, -0.33003545845294724, -0.012788200552364515, -0.07772659220689349, 276729.45622502925, 149611.40223151562, -1874.4839797363256, -23839.403908224598, -816.5055477838177, 18978.525988160432, -4473.518168220908, -5427.5176428766545, -1921.8377392632792, -3108.311086949482, -15.926188717507102, 2341.420458197211, -1511.233475162122, -836.4282565363737, 835.1867907432451, -1099.2139584210054, -699.955122522563, -808.3557750353093, 1229.135103001542, -79.42014182916114, 1380.9196602294069, 1415.910425617, 337.15216146336525, -59.02890856707586, -7.362370757674398, 407.67696634202457, -784.8588179673407, 27.288261475643793, -216.75896860066723, -660.45679002518, -128.34508971844068, -281.1842985030056, 35.31057100847852, 392.6914100248125, -198.21735179525217, 265.39572336233755, -252.12293695868914, -54.464641107619855, 118.29833599615384, 71.34114126768134, 0.8044601768698385, 231.58809530558267, -227.24822685793174, 198.21525503833624, -77.57536465164591, -7.063961465613204, -90.86907188703714, -6.365983365764748, -18.23130395468843, 42.063984341683096, -53.223864509536554, -98.87567032881475, 10.223240853034895, -47.745377126189226, 12.054002883163434, 7.244655756868497, 95.11931369426762, -30.18718620056046, -20.53186949646556, -5.634665623981164, -48.90618419473671, 20.38963723330403, 33.45119828386356, 19.627590602844492, -28.25259592189883, -0.33875033642227237, 12.72585981943173, -5.50164483838163, -23.880082071793282, -3.2993740165824477, 18.3205671617512, 7.057830435028206, 15.291711818329276, -24.527210938892622, -19.54830303817532, -4.332013022497733, -7.743170274031215, 4.92422077201762, -4.250243247461384, 11.088561372968371, -2.269355591995133, 10.211305295855226, 8.114914505868157, -2.517611789362576, 4.882148064430538, 13.368054924805776, -0.6489328812601514, -3.7169693393518344, -6.436462876678785, -8.792013429959866, 0.1309588786006941, -2.1647805827649336, 2.9963757977339185, 1.396223080579972, 2.534077863957407, 1.8134551336715532, -3.599003154805203, -3.1131898322937985, -0.2059442633662627, -0.1913558561589639, -5.432582067277998, -0.0646692864332934, -6.580085259034462, 3.7766010957315785, -3.338691406073522, -1.2835291100558024, 2.0355411552231963, -0.7162220437799505, 2.710210237538199, -0.8015574516800683, 3.1241896778592206, 0.259403677699396, -1.8645093402275563, 0.21053023375293378, -0.2139679941899466, 2.7939261673744795, 0.6056405063156376, -2.0023132604907232, 0.5677847113936139, -0.016037891599012255, -3.088572321385503, 2.3727288417554213, 0.4930364395444897, -0.8291198915828346, 2.844075585480571, 2.46401831738212, 0.425255241567811, 1.2559108548140472]",-5.313333333333333,-3.1,-5.24,-3.86,0.833,CF,_,120.0,PEDOT:PSS,PDINO,10.35,10.35,0.88,17.15,68.6