DA_mordred_pca,HOMO_D_eV,LUMO_D_eV,HOMO_A_eV,LUMO_A_eV,D_A_ratio_m_m,solvent,solvent_additive,annealing_temperature,hole_contact_layer,electron_contact_layer,PCE_percent,calc_PCE_percent,Voc_V,Jsc_mA_cm_pow_neg2,FF_percent
"[-96218.45766618998, 38190.55941397739, 9341.19863978244, -298.0321681723599, 3837.039845288656, -633.0815150821412, -1318.980794355729, 952.285808193773, 528.6042339012306, -265.75996339509254, 85.60403763240663, 327.51410203292335, 339.9238825739942, -217.3938336123946, 80.63195135367053, -89.32083633853233, 32.19492584684396, -21.519530699055707, -3.6266113552724115, -73.04368468656011, 86.79421267883791, 28.9157151412623, 61.36551771993493, -20.29937758864763, -20.5145225649866, 1.7418865694839667, -22.377181673057002, 12.371971410300219, 34.95291732805864, 10.187903617561325, 15.16604348820858, 8.612060636243209, -1.1743635221400766, 7.0376682218726625, -4.093627003889395, 9.922048209550361, -15.554840299560915, -5.613674452998811, -0.2972665085945745, 4.368352481075529, -3.6043195792310403, 1.354200703685919, 2.8516893216669104, -4.255469010620061, 8.299974464104451, 1.2791418187815111, 1.2654639155740988, -2.171801897186288, 0.7563528622149089, 1.6309678283868045, 0.8461705305940708, 3.200150728577338, 4.514637663770485, 2.047832060332592, 0.988495732690156, 3.0209744065138135, -1.0787642655477623, -0.5848165573459294, 0.7450505682325215, 0.7138952097940852, -0.4513392507860554, 0.44000043161623736, 0.9076636698868725, -0.7553614212014921, -1.1367214236829248, 1.4883333004282742, -0.6534390261587824, -0.2020478861539523, 0.5979438493412772, 0.35044047212350127, 0.5920200016964907, -0.4545510567545348, 1.2436977886366634, 0.06188974879205844, 0.28770923066137755, 0.34025436763747585, 0.054350949740208376, 0.15963437295462057, -0.5109982693033068, 0.3735134387368202, 0.6870145153430531, 0.38216412404326583, -0.20553217795980494, -0.08297866327442271, -0.09481622405384194, -0.0074888306561717854, 0.442508262678758, 0.06098427500299941, -0.4139541096843904, 0.14832844029545988, -0.294554145147611, 0.015892796356977712, 0.1548609075275289, -0.005654655004061704, 0.07842930267586645, -0.20841896255037717, 0.07855635365402769, 0.01820150849557578, 0.012441639298426566, -0.05940224021880214, 0.12084591158474112, 0.026787833651969892, 0.019668535058581682, 0.05537380493890609, -0.03933624965050253, 0.009307974571203914, -0.023474896973407267, 0.020049719383548492, 0.003215210697313786, -0.04194589694978035, 0.04089452902605473, 0.02749361263995076, -0.07262298298187164, 0.015379054954234306, 0.0506532373375812, 0.01506994111025417, -0.02377975685210143, 0.009711782809699865, -0.04845640783987859, 0.03322037544939782, -0.008444174408285043, -0.002255075440015908, 0.022455666638478533, -0.005795103590370054, 0.02421124183525336, 0.01760123567103644, -0.016655303062377946, 0.018813816162650987, -58241.32805059803, 10494.039340527961, 48296.76820470891, 14654.295632792486, -5121.997814537353, -5654.725612761495, 1010.3829255749606, 1756.699887110089, 1737.1479323152741, 2536.6039941011727, 728.65738132871, -694.8430305591094, 2212.285963935068, 1153.059756836377, -1400.0540915936997, -647.6349398441507, -953.2608194640255, -612.7437545985667, 304.16431637671127, 10.229983051728652, 668.6234546092087, -325.35338178721264, 19.24634734834592, 346.04743835986005, 21.860471751028854, 143.90817039345512, -539.9223583699243, 52.521600593409936, 9.965265964140258, 36.594648778739696, 115.61232935525298, 7.415132155935908, 211.80512836344326, 91.17479598296313, 43.19502214003016, 16.984921547310606, -123.21449141020298, -35.040298021120776, 61.187032372760086, -63.499978513844354, -57.210172373900605, -34.914653745189256, 23.613577841357483, -53.229649499985534, 70.98693809312269, 26.399143868845684, -9.902959935345265, -11.876996788344684, -48.707830808217324, 57.46855935807021, 20.406479947163156, 11.163070455690956, 23.123874529453474, 5.930476163306082, 42.847788178690536, -23.57492362863573, 13.922916108524632, 27.205037407415915, -12.752903519090836, 41.517030624305136, 20.306797697771916, 6.85357248559896, 14.073916764621757, 3.003152171619128, 30.221461111984752, 22.628730619305678, -2.1979294187747254, -13.405183389633013, -4.200347663462001, 9.832964199027089, -9.658319798915521, -5.998594928626962, 1.8788575085928656, 7.256181572044879, 0.22025392669819688, 0.9230366432667125, -1.686175544197603, 3.0180934581868115, -6.429441632773859, 11.560366467836339, 5.4876836563632505, 16.051498523230812, 6.571835580749905, 14.284859587913346, 3.8319430496894995, -18.784863844314216, -3.4085886063797552, 5.180610951190836, 4.562175854787958, 7.6797577705059386, -0.9078954221709026, 2.8669769442237723, 5.884891052507932, -4.190234973382189, -5.1230843497409, -1.0442566342485193, 3.5678220310761724, 0.706293123842368, -2.2329818969290667, -2.6123295057548575, 2.9242125488748085, 1.5214388606377867, -4.572144634767548, 4.705239529443562, -3.8130913085007236, -1.0023387722778168, -1.2707031772457142, 1.9936631044391415, -1.9707689433106097, 2.6560379984268465, 1.7949338033441968, 0.14945815678477103, 8.085286123905, -2.6463225535512684, -0.7204443281072672, -0.11777076707582523, 0.5621646742858317, 4.093532409940142, -4.7350945424016935, 2.2503853983613453, 2.518180804549329, 1.6831748287653365, 4.0346749980868974, -2.1040954389668265, -1.9909622790947346, -3.033452739125476, -3.604632796563763, -0.04983580453672687]",-5.297714285714285,-3.4170000000000003,-5.6,-3.81,1.0,DCB,DIO,25.0,MoOx,PFN-Br,9.18,9.21,0.91,16.03,63.17
"[-96218.45766618998, 38190.55941397739, 9341.19863978244, -298.0321681723599, 3837.039845288656, -633.0815150821412, -1318.980794355729, 952.285808193773, 528.6042339012306, -265.75996339509254, 85.60403763240663, 327.51410203292335, 339.9238825739942, -217.3938336123946, 80.63195135367053, -89.32083633853233, 32.19492584684396, -21.519530699055707, -3.6266113552724115, -73.04368468656011, 86.79421267883791, 28.9157151412623, 61.36551771993493, -20.29937758864763, -20.5145225649866, 1.7418865694839667, -22.377181673057002, 12.371971410300219, 34.95291732805864, 10.187903617561325, 15.16604348820858, 8.612060636243209, -1.1743635221400766, 7.0376682218726625, -4.093627003889395, 9.922048209550361, -15.554840299560915, -5.613674452998811, -0.2972665085945745, 4.368352481075529, -3.6043195792310403, 1.354200703685919, 2.8516893216669104, -4.255469010620061, 8.299974464104451, 1.2791418187815111, 1.2654639155740988, -2.171801897186288, 0.7563528622149089, 1.6309678283868045, 0.8461705305940708, 3.200150728577338, 4.514637663770485, 2.047832060332592, 0.988495732690156, 3.0209744065138135, -1.0787642655477623, -0.5848165573459294, 0.7450505682325215, 0.7138952097940852, -0.4513392507860554, 0.44000043161623736, 0.9076636698868725, -0.7553614212014921, -1.1367214236829248, 1.4883333004282742, -0.6534390261587824, -0.2020478861539523, 0.5979438493412772, 0.35044047212350127, 0.5920200016964907, -0.4545510567545348, 1.2436977886366634, 0.06188974879205844, 0.28770923066137755, 0.34025436763747585, 0.054350949740208376, 0.15963437295462057, -0.5109982693033068, 0.3735134387368202, 0.6870145153430531, 0.38216412404326583, -0.20553217795980494, -0.08297866327442271, -0.09481622405384194, -0.0074888306561717854, 0.442508262678758, 0.06098427500299941, -0.4139541096843904, 0.14832844029545988, -0.294554145147611, 0.015892796356977712, 0.1548609075275289, -0.005654655004061704, 0.07842930267586645, -0.20841896255037717, 0.07855635365402769, 0.01820150849557578, 0.012441639298426566, -0.05940224021880214, 0.12084591158474112, 0.026787833651969892, 0.019668535058581682, 0.05537380493890609, -0.03933624965050253, 0.009307974571203914, -0.023474896973407267, 0.020049719383548492, 0.003215210697313786, -0.04194589694978035, 0.04089452902605473, 0.02749361263995076, -0.07262298298187164, 0.015379054954234306, 0.0506532373375812, 0.01506994111025417, -0.02377975685210143, 0.009711782809699865, -0.04845640783987859, 0.03322037544939782, -0.008444174408285043, -0.002255075440015908, 0.022455666638478533, -0.005795103590370054, 0.02421124183525336, 0.01760123567103644, -0.016655303062377946, 0.018813816162650987, -39200.57418295455, 45731.009793348356, 56003.906164990025, 3648.5760745610023, -6801.422683954717, -3600.790996573217, 5869.230489278953, 1595.6561105092178, 509.22721471161975, 415.28201358619975, 476.968107441341, -367.2293601339511, 986.7079131894822, 791.4620532659717, -1250.3853701689595, -311.7489959562489, -817.7853177515498, -687.9099730082855, 362.2755623908189, 148.23681317668513, 624.1826155929347, -198.48376860600433, -143.14351051280963, 431.68310198211566, -334.0780442373306, 36.12729983534484, 77.25413683422005, -90.99435940157545, 118.89349189475621, 29.469491127289047, -18.1463765293978, 111.95807586227474, 129.57854833181653, 226.6228602785566, 112.75385316865459, -60.392520120055565, -47.57335732513634, -112.43410969061757, 39.34255666662001, -201.67453201250936, 6.759646184153176, -66.6674873926121, 38.50761524050807, 9.518564905816824, 42.41434866087384, 14.644018326004385, -1.3277392784809976, 2.480188537873353, -30.686155279406123, 6.571839859555176, -28.693749313508558, 15.206870490349274, 23.214076291606688, -9.773272089434663, 41.75870128933812, -10.760486664054064, 19.878941466126044, 11.57591696207028, 13.50530924456642, 8.133388937102055, 23.259436757303003, 7.36608178086016, 17.775298926605515, -33.51441603559903, -0.5649930125960765, 1.988007044890376, 12.184742548556876, -3.736062728235197, 9.858478103600927, 6.2484909305034755, -4.968895096623676, -16.127719550944242, 4.060457620896365, -7.979878266846775, 14.021335401186192, 24.801830216451286, -5.716687533419172, -10.148767536417912, -6.40996485488289, 1.2627023853567714, -1.685311837480719, -2.042696610807205, 10.401635911454841, 13.418091559913435, 6.400411351777922, -5.659678821627736, -6.7311490040897, 12.757028310061308, -8.884090379975664, -0.8909330449601902, -8.133218169616914, -0.44672093555027814, -14.073502766607799, 6.203066422167733, 3.008401060338553, 2.9464350522103295, -3.332520814105754, -0.8317260596135405, -1.3603267933665877, 1.8836111549161672, -4.99618328566394, -4.474120895809153, -2.0585035713822855, -3.8096404599055695, -3.6088361637992854, 3.9472191059683173, 1.5241726670318738, 3.861395861169285, -5.727520728975634, -5.015510663337766, -4.207450997661855, -1.063322148348842, -8.881455825594081, 3.43740249772733, -2.205176688292859, 1.1234533480052278, 3.0631672295677372, -0.4589135291912356, 0.6705100140452345, -2.048172660355096, 1.7374119817291005, 0.1268913087278566, 1.3674849528909458, 1.1531695382877754, 1.0591269171916569, 2.687614091797589, -1.6357771689099039, 0.3390225128509812]",-5.297714285714285,-3.4170000000000003,-5.64,-3.81,1.0,DCB,DIO,25.0,MoOx,PFN-Br,11.12,11.05,0.92,18.55,64.72
"[-96218.45766618998, 38190.55941397739, 9341.19863978244, -298.0321681723599, 3837.039845288656, -633.0815150821412, -1318.980794355729, 952.285808193773, 528.6042339012306, -265.75996339509254, 85.60403763240663, 327.51410203292335, 339.9238825739942, -217.3938336123946, 80.63195135367053, -89.32083633853233, 32.19492584684396, -21.519530699055707, -3.6266113552724115, -73.04368468656011, 86.79421267883791, 28.9157151412623, 61.36551771993493, -20.29937758864763, -20.5145225649866, 1.7418865694839667, -22.377181673057002, 12.371971410300219, 34.95291732805864, 10.187903617561325, 15.16604348820858, 8.612060636243209, -1.1743635221400766, 7.0376682218726625, -4.093627003889395, 9.922048209550361, -15.554840299560915, -5.613674452998811, -0.2972665085945745, 4.368352481075529, -3.6043195792310403, 1.354200703685919, 2.8516893216669104, -4.255469010620061, 8.299974464104451, 1.2791418187815111, 1.2654639155740988, -2.171801897186288, 0.7563528622149089, 1.6309678283868045, 0.8461705305940708, 3.200150728577338, 4.514637663770485, 2.047832060332592, 0.988495732690156, 3.0209744065138135, -1.0787642655477623, -0.5848165573459294, 0.7450505682325215, 0.7138952097940852, -0.4513392507860554, 0.44000043161623736, 0.9076636698868725, -0.7553614212014921, -1.1367214236829248, 1.4883333004282742, -0.6534390261587824, -0.2020478861539523, 0.5979438493412772, 0.35044047212350127, 0.5920200016964907, -0.4545510567545348, 1.2436977886366634, 0.06188974879205844, 0.28770923066137755, 0.34025436763747585, 0.054350949740208376, 0.15963437295462057, -0.5109982693033068, 0.3735134387368202, 0.6870145153430531, 0.38216412404326583, -0.20553217795980494, -0.08297866327442271, -0.09481622405384194, -0.0074888306561717854, 0.442508262678758, 0.06098427500299941, -0.4139541096843904, 0.14832844029545988, -0.294554145147611, 0.015892796356977712, 0.1548609075275289, -0.005654655004061704, 0.07842930267586645, -0.20841896255037717, 0.07855635365402769, 0.01820150849557578, 0.012441639298426566, -0.05940224021880214, 0.12084591158474112, 0.026787833651969892, 0.019668535058581682, 0.05537380493890609, -0.03933624965050253, 0.009307974571203914, -0.023474896973407267, 0.020049719383548492, 0.003215210697313786, -0.04194589694978035, 0.04089452902605473, 0.02749361263995076, -0.07262298298187164, 0.015379054954234306, 0.0506532373375812, 0.01506994111025417, -0.02377975685210143, 0.009711782809699865, -0.04845640783987859, 0.03322037544939782, -0.008444174408285043, -0.002255075440015908, 0.022455666638478533, -0.005795103590370054, 0.02421124183525336, 0.01760123567103644, -0.016655303062377946, 0.018813816162650987, -26138.047412489912, -6531.351056589328, -27828.254744010683, 4115.784304914595, -2853.4780378757177, 5947.2969555574045, 3239.356094098229, 5439.553043388834, -1045.5513562977637, -3186.2638144687744, -1293.1151114228464, -1370.3649862701186, 2294.7532564451562, 126.06885266970423, -673.5253616644337, 2612.573868375701, -416.9603890424984, 728.5435688754978, -423.9474824581835, 193.72937090269218, 624.0715624214307, 848.2526908954803, 203.55334325653382, 267.0407162120346, -281.85406495705683, 415.69236065810003, -36.281284809552645, -200.64471129157792, -309.4627449287752, 402.29716635513734, -287.8211404969309, -85.99170504947932, -353.66041786946477, -88.78815166082319, 91.55427804323807, 159.00687881395663, -19.361572465047626, 18.16576144299048, 73.62203909931013, -51.666002648729375, 53.389110029386515, -75.84275528406235, 86.75306169407709, -18.629876053784493, -79.92231863503262, 52.21835644721696, -20.015090592704407, -8.769717308918901, -26.528551538730426, 12.826345891981031, 38.143097277369705, 20.928983491977476, 11.808176134089324, -33.39817797289192, 8.658876367053253, -17.060326821948188, 28.370685122758207, 3.9977105517655236, -13.394436948666097, 1.2003447957978324, -15.506115456111598, -22.808618963921663, 20.285560728998284, -21.373649878125338, -9.789647327225582, -18.858803259614817, 25.668189696595725, -10.55452456175219, 9.042524034131763, -15.38042642216454, 8.982557572810254, -13.81310572037757, -4.789888084108865, -7.609246061220905, -4.67924518112816, -14.196846195756155, 1.5219331530338889, 12.82304533106787, -13.479007250521661, -11.534400958399038, -4.45280708648094, -6.7108076887136345, -2.1732436846837038, 2.6187145189789067, -5.466274754836818, -2.9054629146411632, -4.853609796753234, -1.8627814849649442, -0.11582293871914207, -3.478388107673175, -5.699246440844151, 1.1317007503125138, 2.9580676376506343, 4.402184833900115, -0.1404153618747115, -1.8296020708965897, 5.931855198079375, -4.136107841882913, 3.8388793394746465, 1.6372107583283597, -3.460076452048032, 3.0229304850964756, -0.6609113408447209, -2.4981645368943166, 0.5599625931629393, -4.70059925724559, 2.453353853912279, 0.5299611050939124, 2.756814426706174, 2.4158926826701386, 2.3140457319473375, -0.2515955172550539, 2.3026101160227865, 2.3959054951519825, 0.060512554569194243, 0.9950955333443245, -0.685952527439607, 0.7364179384077625, -1.735773376854651, -0.5545384289636628, 1.046701664304468, -0.9992317156000438, -1.3243542071651557, -0.01927737216945835, 0.5678243560125971, -0.10536798380661061, -0.5408399592856128, -0.2682035132696108]",-5.297714285714285,-3.4170000000000003,-5.13,-3.78,1.0,CF,_,100.0,PEDOT:PSS,ZrAcAc,11.3,11.21,0.82,20.9,65.4