DA_mordred_pca,HOMO_D_eV,LUMO_D_eV,HOMO_A_eV,LUMO_A_eV,D_A_ratio_m_m,solvent,solvent_additive,annealing_temperature,hole_contact_layer,electron_contact_layer,PCE_percent,calc_PCE_percent,Voc_V,Jsc_mA_cm_pow_neg2,FF_percent
"[-113112.0221877825, -128040.17814553897, -10298.628999373548, 3432.733628547574, 8973.419698991387, -3439.282848851566, 3781.954798850272, -829.6176407827634, 1085.3982123472952, 550.4456547111608, -435.8864607518108, -710.2243801656157, 1326.1626490602139, 8.665554309145136, -418.74269954022566, 187.45956881819745, 121.28409340748124, -4.298184849417794, 8.490690881116162, 52.913455571291934, 87.8658439058351, 43.51987937221628, 44.34062644746041, -49.48592701393579, 33.90433203557939, 4.676946288832141, -8.072828067571379, 10.567251849407967, -111.51899092106515, 28.525996512887673, 100.06773607887192, 12.062822784303606, -5.263110840715456, 7.512175011148145, 1.3785293027879106, 16.635643035520957, 4.039764278740535, -24.845372606161163, -22.45639579757742, 5.826741130519196, -0.7521496402381729, 12.53019855668316, -4.796028348520849, -8.538919188446641, 0.6386535221417375, 0.28586521885279126, 3.6235228381428186, -2.3848029517721017, -2.8923507347754054, 4.7855121583618825, 4.964071798130007, -3.784341510985911, 2.078751210970445, -0.29178313050513793, -1.7735955457794503, -3.129511596315538, 1.0268372421283374, -6.771806284949676, -0.36009360913607225, -0.2885819863777215, 0.7901843974181446, -4.113908987537911, -1.4204402500640185, -1.319936024894119, 0.9505850971635255, 0.3919987624149357, -1.1826527991339901, 0.25278811590131767, -0.10244841765984347, -0.06963895121972996, -0.3177515931384107, -0.252237779743524, 0.3418882282524356, -0.025334246562977114, 0.6085323469659869, -0.08140436503745718, -0.052060392777136144, -0.37716527456960947, 0.622708357653387, 0.7512702289248097, -0.18664277121496298, -0.4686124080250025, 0.11033475969473727, -0.17570642990008523, -0.01191175014561452, -0.5637582343619982, -0.15994847323332984, -0.4211786166219582, -0.07485781839410688, -0.23597185487598793, -0.10873839156025156, -0.12014790117991936, 0.17783780040360142, -0.16002430739202889, -0.04013287387633824, -0.3283820317790074, -0.14723447861628003, -0.013208994816466202, 0.10783506653254449, 0.02054895260968026, 0.0038103610396120757, -0.03785315965532643, -0.013199411282162288, -0.07276953001481701, 0.05509625405750462, -0.04625759139159413, 0.04027683863420606, -0.0025516021335834083, 0.03001469427361414, 0.09321320428330893, 0.06018147875735025, -0.03890482007976459, 0.055154607055641236, 0.0315222130303745, -0.0697597739780349, -0.024930229612809995, -0.01225032381139357, 0.015968003371716222, 0.02773925890596729, 0.0066110138903283655, -0.025875302652229593, 0.0026188898131849214, -0.006174358951955394, 0.01351968740192433, -0.0167749891402309, 0.027379330332195195, -0.004039592793215974, -0.00318420795111507, -81265.92784751095, -202284.8019339249, 6136.329354066143, -6675.004679617501, 14381.04278815074, -1109.1856639395735, -2144.56153025397, 1785.534662026479, -1387.8072139066062, -937.0317275817415, 529.0732207115807, -246.39828412696443, 392.60635852843643, -2845.458539509415, 230.5847763785971, 1099.6205659111633, -1045.3118070398937, 318.7832494618078, -1950.231139648091, 1612.11438651556, -172.79523653967226, 1424.9317893101595, -176.62072174644823, -584.2704374808246, 236.06786635704702, -768.3104422973129, 464.07313388820614, -243.1471027794643, -452.49680123775465, -435.2015258353499, 285.92643739584537, 123.64576165259416, 756.6981038389201, -280.02907244213725, 37.47727209149548, 171.67776084721675, 95.96563914731655, -70.82351075129395, 435.4781913519853, 99.77662211798054, -230.69927488143807, -199.3696843335298, -119.07585662244287, 66.70864148750618, -91.35396869590066, -226.52538561024937, 142.2606776145875, 90.81736261831622, -22.53991692737634, -129.06555014762733, -149.9867251533085, 41.60218413721941, 109.25749717319957, -86.69384734715783, 37.49407007386935, 19.64698556887089, 9.586921949926818, -37.64427974668371, -4.181820699177081, 54.728488634204666, -34.37791478459235, 47.80029214603908, 2.652667831602372, -10.482285992916573, -24.73732452796088, 5.718604570475897, 32.35706948476947, 5.338552330455762, -23.489055099846183, 9.375808811647474, 16.127726081456387, -3.1875722801323603, -13.441259115082005, -23.689040125976923, -10.626337340540278, 10.927624071076934, 2.6225320115508524, 15.92382787653721, -15.333919243448065, -0.7185829951863809, 5.053456717682407, 8.217895543349144, -8.862066461119625, -13.00139574756281, -17.917533127775926, -9.548579608754125, -14.172478394959349, 11.151087355518726, -19.64916277872918, 12.049454366912265, -6.044829266945058, -4.957975457954348, -1.712880224481495, -8.14790071147246, -8.010049629786721, 2.2205556426904494, -7.726275278268815, 5.0411878193710855, 9.415126594804292, 4.325438672106685, -1.579421060548242, 2.213792618086053, 5.929365673162078, 6.71174794890203, -5.527291682880048, 6.462301588806508, 7.213513964144276, -7.691838640362999, -3.117185205597462, 4.667618805445102, -11.991176446777473, -0.6648947504397569, 7.407884916900969, 1.762236537252491, -3.5424185758824596, -8.433433085276498, 6.891354455778796, -9.884045343276492, -3.150152075692368, 4.991992526399692, 1.7337853209557577, -5.3389342349154205, -2.015701050392707, 0.9741460396430455, 3.9357059730488153, -6.39704004105824, -0.166530787477285, 1.016162020545103]",-5.057777777777777,-2.989444444444445,-5.76,-3.97,0.833,o-DCB,_,25.0,PEDOT:PSS,Ca,4.62,4.63,0.87,8.87,60.0
"[-113112.0221877825, -128040.17814553897, -10298.628999373548, 3432.733628547574, 8973.419698991387, -3439.282848851566, 3781.954798850272, -829.6176407827634, 1085.3982123472952, 550.4456547111608, -435.8864607518108, -710.2243801656157, 1326.1626490602139, 8.665554309145136, -418.74269954022566, 187.45956881819745, 121.28409340748124, -4.298184849417794, 8.490690881116162, 52.913455571291934, 87.8658439058351, 43.51987937221628, 44.34062644746041, -49.48592701393579, 33.90433203557939, 4.676946288832141, -8.072828067571379, 10.567251849407967, -111.51899092106515, 28.525996512887673, 100.06773607887192, 12.062822784303606, -5.263110840715456, 7.512175011148145, 1.3785293027879106, 16.635643035520957, 4.039764278740535, -24.845372606161163, -22.45639579757742, 5.826741130519196, -0.7521496402381729, 12.53019855668316, -4.796028348520849, -8.538919188446641, 0.6386535221417375, 0.28586521885279126, 3.6235228381428186, -2.3848029517721017, -2.8923507347754054, 4.7855121583618825, 4.964071798130007, -3.784341510985911, 2.078751210970445, -0.29178313050513793, -1.7735955457794503, -3.129511596315538, 1.0268372421283374, -6.771806284949676, -0.36009360913607225, -0.2885819863777215, 0.7901843974181446, -4.113908987537911, -1.4204402500640185, -1.319936024894119, 0.9505850971635255, 0.3919987624149357, -1.1826527991339901, 0.25278811590131767, -0.10244841765984347, -0.06963895121972996, -0.3177515931384107, -0.252237779743524, 0.3418882282524356, -0.025334246562977114, 0.6085323469659869, -0.08140436503745718, -0.052060392777136144, -0.37716527456960947, 0.622708357653387, 0.7512702289248097, -0.18664277121496298, -0.4686124080250025, 0.11033475969473727, -0.17570642990008523, -0.01191175014561452, -0.5637582343619982, -0.15994847323332984, -0.4211786166219582, -0.07485781839410688, -0.23597185487598793, -0.10873839156025156, -0.12014790117991936, 0.17783780040360142, -0.16002430739202889, -0.04013287387633824, -0.3283820317790074, -0.14723447861628003, -0.013208994816466202, 0.10783506653254449, 0.02054895260968026, 0.0038103610396120757, -0.03785315965532643, -0.013199411282162288, -0.07276953001481701, 0.05509625405750462, -0.04625759139159413, 0.04027683863420606, -0.0025516021335834083, 0.03001469427361414, 0.09321320428330893, 0.06018147875735025, -0.03890482007976459, 0.055154607055641236, 0.0315222130303745, -0.0697597739780349, -0.024930229612809995, -0.01225032381139357, 0.015968003371716222, 0.02773925890596729, 0.0066110138903283655, -0.025875302652229593, 0.0026188898131849214, -0.006174358951955394, 0.01351968740192433, -0.0167749891402309, 0.027379330332195195, -0.004039592793215974, -0.00318420795111507, -80250.93892057678, -195579.07089290477, 5403.157323805737, -9367.369858169226, 9255.584243047899, -3124.571941467559, -4493.908527938154, 3956.1192050159116, -2813.493034377684, -3803.1408865767557, -251.9075099169413, 1419.9474963198318, -456.724585836404, 358.60150106953074, 1416.6800759495306, -999.6081979009875, 524.2952125094093, 1004.4641039068683, -1853.3195280026212, 1696.029894203946, -4.465527253717482, 760.9304545823827, -363.73878853238784, 26.362444940966043, -395.89035711787596, -452.43442330456253, -271.1248934388916, 636.883685439746, -306.26170931635534, -107.13923655584603, -424.56106299653027, 125.95108423776594, 465.1741525779146, 516.8675490213566, -331.7968032145565, 127.45573515882982, 132.8855896466756, 373.54723849499436, 58.933280567916846, -225.92521959270346, -40.66499077512455, 220.9575266317995, 89.92501542197499, 189.00226635349833, -90.89346613146236, -219.78887102275138, -28.035811104886363, -266.48041637088784, -31.773482142693666, 17.16336331906456, -71.58807326787287, 217.93651299829264, 103.42278494835676, -23.646925741134623, -40.861667968115, -10.00694131842448, -56.90174432126267, 11.95432839485943, -19.80924680471901, -44.127052522525844, -98.19356689096256, 41.06848349798622, -59.95398263020567, 23.635059310765882, -16.27749565460445, -13.117353746096175, 8.962600696394833, -58.76490734199551, -45.73210369697159, -5.548596858914408, -6.7240295509823795, 58.51287764293011, -18.471837058932095, -24.33508493552347, 58.28419182218623, 10.672448415873987, -26.753080606314597, 15.91103964206097, -9.249172080933278, 31.469821673925622, 19.328323433074676, -8.937994398813942, -18.772637814939735, 19.447945677876362, 8.08609346361601, 3.348571189381971, 14.018244448193457, 7.7770425159203, -5.368358559363301, 17.967947212608735, -0.6752656173227223, -5.42205344709302, -0.04506374393280055, 5.090945398775773, -7.226933588563639, -15.856607434183466, 4.812180136573666, 12.138230539827557, -5.457807907953885, -9.618443034849435, -7.760235693482773, 9.414431597573717, 19.19532630313089, -11.725446725405675, -16.086125646331084, 4.648116665630884, -12.90339468652061, 1.4035247733955565, 5.952793625531253, 17.795570566748992, 0.7504125131280475, 5.815084042033028, -8.096389162839671, -3.204102273346983, 4.088789962656363, -2.4466087718758587, -7.396427910429551, 6.1106686526531035, 3.696698672564409, -3.7446260921163415, 1.617981146481378, 1.9475700808582221, 4.427178610338949, 0.0937605044548846, 0.9244040240502969, -5.313121675735015, -2.599389630949048, 3.585255004193094]",-5.057777777777777,-2.989444444444445,-5.54,-3.67,0.833,o-DCB,_,25.0,PEDOT:PSS,Ca,3.52,3.53,0.91,6.69,58.0
"[-113112.0221877825, -128040.17814553897, -10298.628999373548, 3432.733628547574, 8973.419698991387, -3439.282848851566, 3781.954798850272, -829.6176407827634, 1085.3982123472952, 550.4456547111608, -435.8864607518108, -710.2243801656157, 1326.1626490602139, 8.665554309145136, -418.74269954022566, 187.45956881819745, 121.28409340748124, -4.298184849417794, 8.490690881116162, 52.913455571291934, 87.8658439058351, 43.51987937221628, 44.34062644746041, -49.48592701393579, 33.90433203557939, 4.676946288832141, -8.072828067571379, 10.567251849407967, -111.51899092106515, 28.525996512887673, 100.06773607887192, 12.062822784303606, -5.263110840715456, 7.512175011148145, 1.3785293027879106, 16.635643035520957, 4.039764278740535, -24.845372606161163, -22.45639579757742, 5.826741130519196, -0.7521496402381729, 12.53019855668316, -4.796028348520849, -8.538919188446641, 0.6386535221417375, 0.28586521885279126, 3.6235228381428186, -2.3848029517721017, -2.8923507347754054, 4.7855121583618825, 4.964071798130007, -3.784341510985911, 2.078751210970445, -0.29178313050513793, -1.7735955457794503, -3.129511596315538, 1.0268372421283374, -6.771806284949676, -0.36009360913607225, -0.2885819863777215, 0.7901843974181446, -4.113908987537911, -1.4204402500640185, -1.319936024894119, 0.9505850971635255, 0.3919987624149357, -1.1826527991339901, 0.25278811590131767, -0.10244841765984347, -0.06963895121972996, -0.3177515931384107, -0.252237779743524, 0.3418882282524356, -0.025334246562977114, 0.6085323469659869, -0.08140436503745718, -0.052060392777136144, -0.37716527456960947, 0.622708357653387, 0.7512702289248097, -0.18664277121496298, -0.4686124080250025, 0.11033475969473727, -0.17570642990008523, -0.01191175014561452, -0.5637582343619982, -0.15994847323332984, -0.4211786166219582, -0.07485781839410688, -0.23597185487598793, -0.10873839156025156, -0.12014790117991936, 0.17783780040360142, -0.16002430739202889, -0.04013287387633824, -0.3283820317790074, -0.14723447861628003, -0.013208994816466202, 0.10783506653254449, 0.02054895260968026, 0.0038103610396120757, -0.03785315965532643, -0.013199411282162288, -0.07276953001481701, 0.05509625405750462, -0.04625759139159413, 0.04027683863420606, -0.0025516021335834083, 0.03001469427361414, 0.09321320428330893, 0.06018147875735025, -0.03890482007976459, 0.055154607055641236, 0.0315222130303745, -0.0697597739780349, -0.024930229612809995, -0.01225032381139357, 0.015968003371716222, 0.02773925890596729, 0.0066110138903283655, -0.025875302652229593, 0.0026188898131849214, -0.006174358951955394, 0.01351968740192433, -0.0167749891402309, 0.027379330332195195, -0.004039592793215974, -0.00318420795111507, -64408.3491021352, -189969.96774750485, 15051.939188001272, -5373.923688864303, 10987.173716788737, -1513.6516836694022, -4831.87027976894, 2735.2507945387533, -6074.498074206691, -126.95223665114827, -5427.6539914096675, 2817.361871410377, 1281.9271351220682, -3699.3455964697514, 2116.1469920113973, -456.56678069682926, -1037.727443055907, 678.3621790333036, -874.6752102060454, -187.3814950986731, -1305.4825704983896, 211.40029756801073, 392.56902083478917, -289.44715153562606, -613.5591034027689, 436.6032598746508, -468.13375522641513, -516.2067365708942, -420.35438579711035, 617.5184266366132, 377.7050472629437, 263.7503183122442, 145.601627323871, 223.94658352741726, -130.76041608546453, 245.77754273950828, 148.1656212698423, -535.6417922945178, 383.719285742503, 163.85815140848837, -64.72107432050157, -17.06762282703022, -127.63917131749065, 101.59128901845725, 52.54045858349809, -158.37193374966856, -49.063639678897005, -64.71692072809827, -135.8590438835831, 55.013705582914696, -97.96964478643156, 86.84416180917117, 209.53404081639513, -57.08837773663683, 10.340667187224483, 22.566280695537216, -108.85401283571024, -72.69237268422572, 71.02252087440178, -46.68379935853403, -21.488581513343874, 35.55566995243461, 25.533081571030067, -47.60987553731576, -11.497397439968267, 43.857477798285615, 35.338914076093204, -15.090945170004076, 47.06076274611205, 4.392605818219579, -13.348776927679609, 35.48773239381778, -37.50196619095786, -16.894872537575623, -8.197258891488746, -17.10460119221068, -27.712228977573723, -11.01018426992804, -16.075127696473373, 7.481330930800283, -22.167545785340486, -19.47099375633185, 3.3400840128144154, -11.9608705944475, 13.119201289569006, -11.828003905226893, 15.375164061265366, -5.457636635950905, 55.55378479752264, -2.849859128384459, 19.480365901713554, -2.488797067198931, 11.389270658482204, -12.670479875684151, -3.2837137578170115, 5.171921269132909, -19.04799857102465, -8.300220452201597, -3.0685007959811834, 18.312228200542023, -2.8822154751516393, -1.9804143114783486, -5.905238652052571, -14.745869118814763, 0.04581885951229481, 0.32705834272850076, 8.106060303606416, 15.275773058073725, -3.885094585786147, -3.5082545021310523, -3.8759667478849593, -1.766447690269075, -2.3686217718379083, 8.204199180426073, 1.4625084083455069, 1.3475002191064078, 3.4926508565627756, 3.474423963673388, -3.084704319086562, -6.564643531590626, 0.3921971173142059, -0.0767480921124104, 2.2001158876240297, -2.0455911774246083, -5.2854852628414335, 1.545526167121242, -5.50343143115947, -6.398890674954544]",-5.057777777777777,-2.989444444444445,-6.34,-3.73,0.833,o-DCB,_,25.0,PEDOT:PSS,Ca,4.03,4.02,0.97,7.03,59.0