DA_mordred_pca,HOMO_D_eV,LUMO_D_eV,HOMO_A_eV,LUMO_A_eV,D_A_ratio_m_m,solvent,solvent_additive,annealing_temperature,hole_contact_layer,electron_contact_layer,PCE_percent,calc_PCE_percent,Voc_V,Jsc_mA_cm_pow_neg2,FF_percent
"[-105631.73783275932, -74572.73247403272, 4329.753734020427, -2341.4243576849567, -5555.485216633641, -172.87819728700106, -798.6979620852667, 856.8010146047068, -1780.8026309386028, 649.5717848685752, 65.62447326392157, 388.30062073400836, -353.1258883999071, -137.697950651705, 31.52142203119479, -106.39355730444561, 81.98057692092414, -63.14138686604906, 66.8688432765725, -31.850017336689234, -14.562814664564094, -114.9941249091529, 19.27422754978045, 6.86920436049806, -13.362968611123335, -88.88424698589336, -9.680549433746734, -6.256532059762719, -19.287322586292646, 30.85187752382363, -0.060728621664203786, -1.7204165771485123, 18.096287928493183, -5.394264557244732, 40.036620565000476, -33.18107886987201, 2.1644049971745574, -3.5496157331860445, 9.702406188567533, -7.574832588501394, 9.796433451870143, 2.157829321761511, -3.1218789726135014, 6.6756247366353705, -7.1588684345745435, -6.697268175137552, -1.4052090508045652, -1.9646060063565116, -5.4204105421624575, 3.32941670679557, -3.8499636318233144, -4.615352531498566, -0.07975953344401887, 3.391194367932755, -4.106358123047258, 1.501503218822819, 0.9563824343184066, -2.6973013366915453, 0.8798263076499495, -1.2664639901547048, 1.2677471291641744, 0.13775840341868673, -2.0083004655011223, 2.233635675897844, -1.9092080674585787, 1.3281780039048954, 1.7708225501106938, 0.11723884380987926, -0.7217945654510771, 0.020674104910288094, 0.6321921645490995, -0.12750860712933587, -0.7324806057772388, 0.387690081710673, 0.5704773577055064, -0.5561048571084157, 0.13303415142318897, -0.39533728660630274, -0.19314666767595423, -0.17136554860633169, -0.3105600644218782, 0.09227497024608411, 0.3640581811437116, 0.12456153887661969, -0.4900314009409783, -0.2105542507325282, -0.11287961723428896, -0.4896110545300445, -0.2576249538547408, 0.020036158749878297, 0.19004174677945684, 0.43512588848888356, -0.15984926722186188, -0.03699898168409543, -0.16184812575650298, -0.018640178199959223, -0.06970965394751483, 0.02644608400954951, 0.4184249457529603, 0.06710147780425979, -0.1455202420919477, -0.027435290436191195, 0.055771972451445606, -0.09475802435058256, 0.24207868559446766, -0.05282116924259128, -0.1882724966860181, -0.05346045629421603, -0.10831494984240475, -0.0036262226167114164, -0.026380022030597416, 0.020118181288705017, 0.03512820925391846, 0.029024371883522804, -0.050134402663047695, 0.01941571781524054, 0.00820689833365762, 0.059280726425585684, -0.07718365209846922, -0.05673269250273272, 0.03097365628437565, 0.0007247489018915587, 0.008388415516517256, 0.019782146741892603, 0.003491413958400358, 0.005668303566913835, 0.008251200563019978, 0.015433351818131769, 4980.992306184638, 101923.33571141181, -197.6452019343069, -13545.24735191981, 1238.9849980082581, -5377.421259668434, 1118.5229237565654, -115.4535581458349, -3020.2888114767456, 3936.7227710928983, 1240.0630344463252, 922.6578867575281, -417.03749214475556, -64.49479322135187, 1022.1684157100484, -35.615346853998744, 925.0726753297962, 659.745580512219, 226.7146780145276, -540.698465356211, 48.236850210959346, 295.41342301144573, -432.3623437441255, 190.2622976300753, 202.26207973028318, -15.459033731477462, -133.16114406469518, -199.72631097782352, -177.34067012126854, 19.492132531453194, -168.18664356572813, 84.87702651330773, 43.75145604816885, -6.246789896450991, 203.1093762331552, -90.52864240326957, 104.0084213876388, 4.310216805640152, 93.22531800999508, -80.28423260465365, 70.37175186844601, -0.24630462809568598, 34.32672579988332, -25.1184541624813, -97.38008162498902, 75.80020430868632, -49.82301620522111, -33.42402446845176, -1.7992245787737602, 34.72689936800822, -1.5687634610431047, -26.065933311817105, 53.702804744797646, 1.9825493892427346, -14.063840574889923, -16.01588816007137, -10.432745460824947, 0.43720599159297535, 11.602651879358007, -5.802767481939384, 5.105853292651574, -9.205609106741093, -13.030536869854473, -19.1898301036924, 0.4611991055402598, 17.78618600943485, 16.510666129735746, 3.579584065871085, 13.046539036809973, -11.106656305145549, 0.5221971704232473, -3.914885154733751, -5.311360063111394, 7.156738883500445, 5.1479321988917555, -2.213910232777039, -0.15684253530395154, -6.049352037523107, -4.685784601714261, -5.312815437774503, 1.506473198654028, 11.068396543138945, 1.6319317902149884, -2.6758416322824274, 4.1806447662348205, -5.2037113487871665, -5.291268579729866, 5.917055070908432, -6.52185645446961, -2.8550071752136716, 2.2891063206022153, -5.261467316014276, 4.464379919638915, 0.4131016499710398, 3.508377933989294, -0.7339189467300571, -0.37451076692761376, -0.7840840351454545, -2.194389447000333, 6.41183889269675, -2.4457336662742435, 1.8480964693438509, 4.135644425942138, 0.14094146364928228, -5.006028580112343e-06, 0.20471612802261063, -0.22544940555335202, -2.393827572194237, -1.9469403162203847, -1.0550116680375652, -0.9195417090695166, 2.9286741245018604, -0.36653961514912226, -3.8207113978545735, 2.5136492806671367, 0.8338052227480262, 0.9864810417441419, 0.18920410589711167, 0.23074645110563807, -0.8936818053066489, -3.151974202455329, 2.092057039181105, 1.4828765742181176, 0.12354426683239339, -0.8652043400760903, -1.9764497543424753, 0.06620756641459025, 2.0186753691442973]",-5.204782608695651,-3.5391891891891896,-5.32,-3.95,1.0,CB,DIO,100.0,PEDOT:PSS,PFN-Br,7.3,7.32,0.91,13.3,60.5
"[-96218.45766618998, 38190.55941397739, 9341.19863978244, -298.0321681723599, 3837.039845288656, -633.0815150821412, -1318.980794355729, 952.285808193773, 528.6042339012306, -265.75996339509254, 85.60403763240663, 327.51410203292335, 339.9238825739942, -217.3938336123946, 80.63195135367053, -89.32083633853233, 32.19492584684396, -21.519530699055707, -3.6266113552724115, -73.04368468656011, 86.79421267883791, 28.9157151412623, 61.36551771993493, -20.29937758864763, -20.5145225649866, 1.7418865694839667, -22.377181673057002, 12.371971410300219, 34.95291732805864, 10.187903617561325, 15.16604348820858, 8.612060636243209, -1.1743635221400766, 7.0376682218726625, -4.093627003889395, 9.922048209550361, -15.554840299560915, -5.613674452998811, -0.2972665085945745, 4.368352481075529, -3.6043195792310403, 1.354200703685919, 2.8516893216669104, -4.255469010620061, 8.299974464104451, 1.2791418187815111, 1.2654639155740988, -2.171801897186288, 0.7563528622149089, 1.6309678283868045, 0.8461705305940708, 3.200150728577338, 4.514637663770485, 2.047832060332592, 0.988495732690156, 3.0209744065138135, -1.0787642655477623, -0.5848165573459294, 0.7450505682325215, 0.7138952097940852, -0.4513392507860554, 0.44000043161623736, 0.9076636698868725, -0.7553614212014921, -1.1367214236829248, 1.4883333004282742, -0.6534390261587824, -0.2020478861539523, 0.5979438493412772, 0.35044047212350127, 0.5920200016964907, -0.4545510567545348, 1.2436977886366634, 0.06188974879205844, 0.28770923066137755, 0.34025436763747585, 0.054350949740208376, 0.15963437295462057, -0.5109982693033068, 0.3735134387368202, 0.6870145153430531, 0.38216412404326583, -0.20553217795980494, -0.08297866327442271, -0.09481622405384194, -0.0074888306561717854, 0.442508262678758, 0.06098427500299941, -0.4139541096843904, 0.14832844029545988, -0.294554145147611, 0.015892796356977712, 0.1548609075275289, -0.005654655004061704, 0.07842930267586645, -0.20841896255037717, 0.07855635365402769, 0.01820150849557578, 0.012441639298426566, -0.05940224021880214, 0.12084591158474112, 0.026787833651969892, 0.019668535058581682, 0.05537380493890609, -0.03933624965050253, 0.009307974571203914, -0.023474896973407267, 0.020049719383548492, 0.003215210697313786, -0.04194589694978035, 0.04089452902605473, 0.02749361263995076, -0.07262298298187164, 0.015379054954234306, 0.0506532373375812, 0.01506994111025417, -0.02377975685210143, 0.009711782809699865, -0.04845640783987859, 0.03322037544939782, -0.008444174408285043, -0.002255075440015908, 0.022455666638478533, -0.005795103590370054, 0.02421124183525336, 0.01760123567103644, -0.016655303062377946, 0.018813816162650987, 76521.10935948418, 145287.67192851816, 67882.63472509664, 31387.547154066466, 4205.168058428187, 8867.681346683636, -9564.146168673598, -4153.58531873708, 588.3914609495074, 587.9994625798054, -1635.9336139112677, -1236.6713751089326, -817.2981677678371, -620.9146739941525, -341.5233630352565, -550.0234134187789, 2593.103677220657, 3325.6022915152857, -2146.0124554015483, -1663.146255530551, -342.1584069299131, -194.71899250914305, 604.961735594373, 987.969171582698, 1751.4973119274032, 587.5559342465804, -450.42608462785165, 882.0646852947551, 867.2167161871671, -245.67793282062001, -224.26095151372533, -552.3403886411932, 501.9225036538144, -62.094111830333134, 116.68819433020927, 302.55906932707416, -280.73212283727725, -68.84503353299911, -165.91550223149613, 370.43789031127625, -224.66087471320964, -12.363564710467259, 184.0992285710328, 58.88539890140211, 189.06088749622037, -89.8170826024243, -224.05591709860883, -146.07917262855844, -128.61633991929853, -83.98371106401336, 32.93991794191743, -15.090319332671967, -54.12563707282142, 54.520602802549234, 36.2299665695117, 27.145267993001468, -23.45941628662093, 30.515055637857785, -107.76727792645364, -34.954048900692214, -29.830343401515556, 37.56290439677608, -2.885041101788026, -26.6252670639413, -66.64595649866057, 12.02917392079069, 37.082133262654, -12.584828639143975, 19.820737446968696, -25.858425696082026, 23.450634356525853, -29.218925645858512, 7.6018412856461595, -9.147913104371803, 22.171028383028045, 2.9423892012185604, 17.132326353238547, 37.64449574595814, -8.084591506375077, 5.74761797224388, 2.602020180342627, -0.7600127730218844, -17.17928135061412, 10.446769007500116, 6.4617031130455445, -31.075918814111688, -20.906928373016044, -2.2697268339681855, -1.2582389303523467, 11.009443238512207, -9.995051724150272, -20.49179302229615, -21.26237278645295, -1.5654115712185543, -12.424998434346747, 8.947296683369332, -6.194381847705078, -1.52692979012002, 9.156455692150686, 10.447142034555071, -2.8561165312632326, -5.3202549640550565, -15.87634328599803, 1.2006329863328435, 8.71276487452771, -1.36065636844729, 3.4047545691857852, 1.5356528042885067, 2.8576953462924033, -1.7464193996902502, -4.336921766102538, 2.4322318803675067, -7.158395278800647, -3.60942398704187, -1.934636239778956, 0.9271140375669695, 2.658540416661488, 3.3718037647689734, -0.1277128373350358, -1.1899339290573145, 9.130246118259615, -0.3935358229302319, -4.00303597594114, 0.6321843163352749, -2.7791884340684287, -0.042290474641321296, 1.2299405602985232, 5.801064798076359]",-5.297714285714285,-3.4170000000000003,-5.68,-3.84,1.0,CB,_,25.0,PEDOT:PSS,PNDIT-F3N,9.49,12.86,0.86,17.8,84.0
"[-105631.73783275932, -74572.73247403272, 4329.753734020427, -2341.4243576849567, -5555.485216633641, -172.87819728700106, -798.6979620852667, 856.8010146047068, -1780.8026309386028, 649.5717848685752, 65.62447326392157, 388.30062073400836, -353.1258883999071, -137.697950651705, 31.52142203119479, -106.39355730444561, 81.98057692092414, -63.14138686604906, 66.8688432765725, -31.850017336689234, -14.562814664564094, -114.9941249091529, 19.27422754978045, 6.86920436049806, -13.362968611123335, -88.88424698589336, -9.680549433746734, -6.256532059762719, -19.287322586292646, 30.85187752382363, -0.060728621664203786, -1.7204165771485123, 18.096287928493183, -5.394264557244732, 40.036620565000476, -33.18107886987201, 2.1644049971745574, -3.5496157331860445, 9.702406188567533, -7.574832588501394, 9.796433451870143, 2.157829321761511, -3.1218789726135014, 6.6756247366353705, -7.1588684345745435, -6.697268175137552, -1.4052090508045652, -1.9646060063565116, -5.4204105421624575, 3.32941670679557, -3.8499636318233144, -4.615352531498566, -0.07975953344401887, 3.391194367932755, -4.106358123047258, 1.501503218822819, 0.9563824343184066, -2.6973013366915453, 0.8798263076499495, -1.2664639901547048, 1.2677471291641744, 0.13775840341868673, -2.0083004655011223, 2.233635675897844, -1.9092080674585787, 1.3281780039048954, 1.7708225501106938, 0.11723884380987926, -0.7217945654510771, 0.020674104910288094, 0.6321921645490995, -0.12750860712933587, -0.7324806057772388, 0.387690081710673, 0.5704773577055064, -0.5561048571084157, 0.13303415142318897, -0.39533728660630274, -0.19314666767595423, -0.17136554860633169, -0.3105600644218782, 0.09227497024608411, 0.3640581811437116, 0.12456153887661969, -0.4900314009409783, -0.2105542507325282, -0.11287961723428896, -0.4896110545300445, -0.2576249538547408, 0.020036158749878297, 0.19004174677945684, 0.43512588848888356, -0.15984926722186188, -0.03699898168409543, -0.16184812575650298, -0.018640178199959223, -0.06970965394751483, 0.02644608400954951, 0.4184249457529603, 0.06710147780425979, -0.1455202420919477, -0.027435290436191195, 0.055771972451445606, -0.09475802435058256, 0.24207868559446766, -0.05282116924259128, -0.1882724966860181, -0.05346045629421603, -0.10831494984240475, -0.0036262226167114164, -0.026380022030597416, 0.020118181288705017, 0.03512820925391846, 0.029024371883522804, -0.050134402663047695, 0.01941571781524054, 0.00820689833365762, 0.059280726425585684, -0.07718365209846922, -0.05673269250273272, 0.03097365628437565, 0.0007247489018915587, 0.008388415516517256, 0.019782146741892603, 0.003491413958400358, 0.005668303566913835, 0.008251200563019978, 0.015433351818131769, -37131.755397946275, -32508.334592683455, -13733.991791740451, 975.0472043788677, -4816.783473476758, -1938.8216112003863, 5268.180409111326, 1922.805023846312, 518.2707261175561, -2140.738795331606, -4919.976197435073, -1212.9611916905271, 569.2248749361531, 693.9080874287473, -861.8584956738337, 257.35008489812117, 1356.9694754627262, 240.64608731460112, 682.0283914026851, -207.5270839881106, -163.99892922244862, 312.06107228664126, 245.44201026392648, -318.1109087265131, -236.81238305824684, 5.2661339692269, -144.26666530233615, -81.47525385045563, -69.5412703181239, -230.5124196235942, -23.32996476369408, -303.08698795943894, -309.0505395044145, -132.94576524900614, 149.36570885381954, -116.54238061567027, 156.6933577920665, 123.3511807652823, -57.51767023305125, -73.79354303152789, 33.321452347358324, 18.957691460501096, -17.006408053141826, -76.2126424451037, 43.424796732435865, 27.50170629299487, 4.307556037158534, -41.0803104861255, 4.396931306959871, 26.277915500965292, -14.760063060136105, 19.782864270157702, 56.300347375039436, 28.58267710674736, -5.116701706645102, -8.024916037262045, 6.995822614036989, 36.90067940767982, -24.944908066847375, 1.9622360219102433, -13.702442229728305, -9.265678994049203, 16.462000335194084, 10.902716570332377, 0.2963382944523332, -12.590867010493627, 13.41432862294749, -9.664416020446593, -6.875739194576797, 3.1563486459170313, 9.185727799791962, -3.3506118192718564, 5.932231271497187, 4.577640665649856, 0.7468251344238412, 2.1350427438929813, -1.8415603140612635, -1.0967190379743084, -0.21618610748254952, 7.568343732269447, -5.904513596182873, -4.724876579664798, -10.95605369894849, -2.8919224816898677, 2.318869089186858, 0.9765902891103053, -2.2790469922261476, -3.5741773930933505, 0.005229926967766474, -7.427289024522899, -4.167932704260853, -2.6653270943632563, -1.8164704858483418, -5.105896722098173, -3.247507862731041, -1.191854510256995, -6.622381152261919, 1.6336280496089124, 2.0683205978027224, -2.6084815364328477, -0.7957273819798107, 1.1458542066800934, 1.5734847640918272, 1.0081203094842022, 0.6619516525464988, 1.7318241648100923, 1.5488881370561307, 2.0516822266214207, -2.9261055454448606, -0.9014175541154721, -0.45578996673958017, -0.8780638129781657, -0.19494927453503408, -0.41919719221556484, 1.2566096579529509, -2.0119495076167215, 0.37083653199772826, -2.7749474834969075, 0.3125363591411485, -1.1417758214721836, -1.1316915530302505, -0.17297482132738962, 0.10828499176179829, 1.334591429183579, 1.0248493833055887, -1.137035212443612, -0.09715776154969902, -0.2325475974247837]",-5.204782608695651,-3.5391891891891896,-5.45,-3.93,0.667,DCB,CN,25.0,MoOx,ZnO,9.41,7.75,0.744,17.1,60.9