DA_mordred_pca,HOMO_D_eV,LUMO_D_eV,HOMO_A_eV,LUMO_A_eV,D_A_ratio_m_m,solvent,solvent_additive,annealing_temperature,hole_contact_layer,electron_contact_layer,PCE_percent,calc_PCE_percent,Voc_V,Jsc_mA_cm_pow_neg2,FF_percent
"[-96218.45766618998, 38190.55941397739, 9341.19863978244, -298.0321681723599, 3837.039845288656, -633.0815150821412, -1318.980794355729, 952.285808193773, 528.6042339012306, -265.75996339509254, 85.60403763240663, 327.51410203292335, 339.9238825739942, -217.3938336123946, 80.63195135367053, -89.32083633853233, 32.19492584684396, -21.519530699055707, -3.6266113552724115, -73.04368468656011, 86.79421267883791, 28.9157151412623, 61.36551771993493, -20.29937758864763, -20.5145225649866, 1.7418865694839667, -22.377181673057002, 12.371971410300219, 34.95291732805864, 10.187903617561325, 15.16604348820858, 8.612060636243209, -1.1743635221400766, 7.0376682218726625, -4.093627003889395, 9.922048209550361, -15.554840299560915, -5.613674452998811, -0.2972665085945745, 4.368352481075529, -3.6043195792310403, 1.354200703685919, 2.8516893216669104, -4.255469010620061, 8.299974464104451, 1.2791418187815111, 1.2654639155740988, -2.171801897186288, 0.7563528622149089, 1.6309678283868045, 0.8461705305940708, 3.200150728577338, 4.514637663770485, 2.047832060332592, 0.988495732690156, 3.0209744065138135, -1.0787642655477623, -0.5848165573459294, 0.7450505682325215, 0.7138952097940852, -0.4513392507860554, 0.44000043161623736, 0.9076636698868725, -0.7553614212014921, -1.1367214236829248, 1.4883333004282742, -0.6534390261587824, -0.2020478861539523, 0.5979438493412772, 0.35044047212350127, 0.5920200016964907, -0.4545510567545348, 1.2436977886366634, 0.06188974879205844, 0.28770923066137755, 0.34025436763747585, 0.054350949740208376, 0.15963437295462057, -0.5109982693033068, 0.3735134387368202, 0.6870145153430531, 0.38216412404326583, -0.20553217795980494, -0.08297866327442271, -0.09481622405384194, -0.0074888306561717854, 0.442508262678758, 0.06098427500299941, -0.4139541096843904, 0.14832844029545988, -0.294554145147611, 0.015892796356977712, 0.1548609075275289, -0.005654655004061704, 0.07842930267586645, -0.20841896255037717, 0.07855635365402769, 0.01820150849557578, 0.012441639298426566, -0.05940224021880214, 0.12084591158474112, 0.026787833651969892, 0.019668535058581682, 0.05537380493890609, -0.03933624965050253, 0.009307974571203914, -0.023474896973407267, 0.020049719383548492, 0.003215210697313786, -0.04194589694978035, 0.04089452902605473, 0.02749361263995076, -0.07262298298187164, 0.015379054954234306, 0.0506532373375812, 0.01506994111025417, -0.02377975685210143, 0.009711782809699865, -0.04845640783987859, 0.03322037544939782, -0.008444174408285043, -0.002255075440015908, 0.022455666638478533, -0.005795103590370054, 0.02421124183525336, 0.01760123567103644, -0.016655303062377946, 0.018813816162650987, -31108.856697411527, 63577.75009820651, 59828.79756097166, -2015.3896827690405, -7566.980856413691, -2574.1633753833644, 8148.886453150569, 1586.72526238105, -47.92660741707738, -592.5327200478031, 372.386389289021, -197.55391742246437, 437.7503783418904, 570.4910698962739, -1180.517580035966, -210.78996480928882, -757.4522434338912, -728.9190087138277, 456.9808303874285, 242.4014226328586, 630.0377983517428, -139.6171989194085, -215.54637688628287, 500.43234909406783, -470.07907762051366, -33.035938597806776, 417.3810286754744, -173.72924182919832, 137.14238881188447, 17.195561820727324, -127.79247606389083, 206.12577548719764, 80.89154403257811, 331.72999800444467, 108.97051799402992, -111.10958553082317, 4.908184619738321, -129.5227553643205, 17.20894667968556, -272.6641094811616, 38.79085719196948, -74.31854537568101, 53.96500124530615, 47.892331881933934, 25.04090585144423, 11.13667413812075, 29.508392369208998, 2.249646374708007, 2.364160646397778, -6.728397711773731, -60.52268693507225, 16.873640529299095, 22.385281752887153, -24.781588790433858, 55.45870710708329, 10.198408992259449, 40.460686750361305, -11.99124118662722, -18.158147060715578, 17.583385587840418, 31.69737616170388, 19.44257297592206, 9.002499995478892, -7.161558864547125, 17.91392877895632, 2.008871913818152, -10.578584198891782, -8.172628250840528, 4.022597134193308, 11.412249555559233, -11.126944920521654, -20.688742818100003, 4.816470496158745, 1.2408541395237407, 8.011850399344599, 9.655691913650589, 2.0869020042899584, -6.845136895713136, 0.4541540423618393, 8.401985847076253, 5.42906179875344, -0.02869076073894483, 11.450393019802414, 14.68017512331278, 6.160208617416177, -7.913309704627069, -4.079331644982534, 12.09657637382388, -0.07391275026389099, -2.468485311454601, -0.4080412751996976, 3.116092785465905, -0.3141336882632322, 1.6078262991572334, 0.6786086496411325, 1.937214436295883, 0.7278453857839304, -0.6212923710406706, -1.3926009754115776, 3.6354521282585655, -1.5538862566603502, -2.669727334124369, -1.208360813859155, -2.1854758737349353, -2.807806107724179, -0.9148626441510057, 0.5958932634866267, 1.8629751567123183, -2.652220028138892, -2.172288328819106, -2.5158205956635964, -1.441007850241169, -3.6538169591906673, -0.5205846716901341, 4.104073734584019, -0.9167222990926547, 2.384262462842589, -0.40664265739547645, 0.20425115632700708, -1.0911089764630368, -0.09266666128803003, -0.4466294463899897, 2.4667497591755243, -1.1771102617671971, 1.073989161271049, -0.8091772555593171, 1.2495850885001443, -1.4811809865943237]",-5.297714285714285,-3.4170000000000003,-5.43,-3.71,0.833,CB,DIO,25.0,PEDOT:PSS,PDIN,10.06,9.81,0.94,15.81,66.0
"[-113112.0221877825, -128040.17814553897, -10298.628999373548, 3432.733628547574, 8973.419698991387, -3439.282848851566, 3781.954798850272, -829.6176407827634, 1085.3982123472952, 550.4456547111608, -435.8864607518108, -710.2243801656157, 1326.1626490602139, 8.665554309145136, -418.74269954022566, 187.45956881819745, 121.28409340748124, -4.298184849417794, 8.490690881116162, 52.913455571291934, 87.8658439058351, 43.51987937221628, 44.34062644746041, -49.48592701393579, 33.90433203557939, 4.676946288832141, -8.072828067571379, 10.567251849407967, -111.51899092106515, 28.525996512887673, 100.06773607887192, 12.062822784303606, -5.263110840715456, 7.512175011148145, 1.3785293027879106, 16.635643035520957, 4.039764278740535, -24.845372606161163, -22.45639579757742, 5.826741130519196, -0.7521496402381729, 12.53019855668316, -4.796028348520849, -8.538919188446641, 0.6386535221417375, 0.28586521885279126, 3.6235228381428186, -2.3848029517721017, -2.8923507347754054, 4.7855121583618825, 4.964071798130007, -3.784341510985911, 2.078751210970445, -0.29178313050513793, -1.7735955457794503, -3.129511596315538, 1.0268372421283374, -6.771806284949676, -0.36009360913607225, -0.2885819863777215, 0.7901843974181446, -4.113908987537911, -1.4204402500640185, -1.319936024894119, 0.9505850971635255, 0.3919987624149357, -1.1826527991339901, 0.25278811590131767, -0.10244841765984347, -0.06963895121972996, -0.3177515931384107, -0.252237779743524, 0.3418882282524356, -0.025334246562977114, 0.6085323469659869, -0.08140436503745718, -0.052060392777136144, -0.37716527456960947, 0.622708357653387, 0.7512702289248097, -0.18664277121496298, -0.4686124080250025, 0.11033475969473727, -0.17570642990008523, -0.01191175014561452, -0.5637582343619982, -0.15994847323332984, -0.4211786166219582, -0.07485781839410688, -0.23597185487598793, -0.10873839156025156, -0.12014790117991936, 0.17783780040360142, -0.16002430739202889, -0.04013287387633824, -0.3283820317790074, -0.14723447861628003, -0.013208994816466202, 0.10783506653254449, 0.02054895260968026, 0.0038103610396120757, -0.03785315965532643, -0.013199411282162288, -0.07276953001481701, 0.05509625405750462, -0.04625759139159413, 0.04027683863420606, -0.0025516021335834083, 0.03001469427361414, 0.09321320428330893, 0.06018147875735025, -0.03890482007976459, 0.055154607055641236, 0.0315222130303745, -0.0697597739780349, -0.024930229612809995, -0.01225032381139357, 0.015968003371716222, 0.02773925890596729, 0.0066110138903283655, -0.025875302652229593, 0.0026188898131849214, -0.006174358951955394, 0.01351968740192433, -0.0167749891402309, 0.027379330332195195, -0.004039592793215974, -0.00318420795111507, -91373.57455652728, -208787.25232078243, 29665.062393503395, -4734.3571024210505, 13452.70148352165, 3420.3510823884253, -2749.0283602922245, 513.905190042532, -2354.20254521554, 1690.4401530561843, -5258.499471845163, 1622.579722213054, 282.8748454444926, -3585.230944429393, 729.3928221608783, 400.03375481119565, 58.56812124987454, 228.3414314485176, 343.4295164246154, 942.6496468791626, 1723.489643379493, 175.53735773910057, 1537.4722692690057, -1359.2437928072573, 1459.705437473308, -881.2550835010516, 1092.0599525000273, -886.2456046444939, -18.56111761533748, -627.9057012273997, 500.32192756041076, 134.1039473990926, -368.51151106625855, -188.2413328841103, -376.4588585576329, -5.878010476780332, 155.56427225268374, 283.5821427596936, -95.99294000161649, -65.08285073365755, 65.02486732165352, -301.2061061618401, 238.93902001752656, -148.66526407137792, 70.82182144319601, -214.576728500088, 121.15284243380233, 153.38943508750663, -99.1231038070816, 41.92458505730821, -87.06699723646437, -135.62992082897472, 18.965516401635227, -23.248670327343177, 8.039511939589943, 31.73960893435924, 54.00163068276629, 50.37947258175433, 15.600463830769627, -89.76254516089739, 2.421022941862347, -63.00189202728673, -6.11592524633798, 2.782837572896028, -12.531570431483459, -27.136687046776963, 10.46620648907966, -14.340447271926351, 64.35577258255425, -2.146351502014795, 16.290014354146564, 6.411804178344382, 22.945866098905384, 1.2902986956179134, 4.064637694898728, 16.415443674389735, 30.67328429181123, -11.550718907687134, -5.0207729172724385, -1.8703530464712514, -0.47810154701575147, 16.02063720052807, 23.003202023401407, 10.113241861028456, 15.343451263771243, -6.64635331745221, 4.000016197986447, -1.231702124940341, -3.3126945169327726, 9.673024120694777, -3.345107753361731, -9.940826953685303, 10.663390542081302, 7.174766003507301, 4.329626401100484, 6.842240033335962, 3.7889989528062387, 1.9652505833885385, 4.92481682713359, -4.884139119214552, -2.3154415956668686, -1.7961646326600942, -1.8820385775777133, 2.298427541953931, -2.530107697823837, 4.485155288428167, -6.081167247158923, 0.8645712082440369, 3.328273009939, 2.39792871612012, 2.904466210809666, 1.1832749762682795, -2.619957917141477, 0.8810168118724562, -0.9596993101022129, 2.2376809840109644, -5.259018441581333, 1.0188852874076986, -1.8536146312208786, 2.20228432678239, 0.4897657966959761, 0.2824897950623537, 0.7604826174979991, -0.07817832345037345, -2.361509058350986, 2.2446478493514697, -0.90908097852477, -1.6763953784083014]",-5.057777777777777,-2.989444444444445,-5.81,-3.99,1.0,CF,DIO,40.0,PEDOT:PSS,PFN,1.14,1.13,0.64,4.22,42.0
"[-85451.37542657244, 93017.6198698834, -19446.855505062056, 5233.133952657597, 13324.674194807318, 1184.626976085954, 7379.247430621909, 7464.772190569307, -2673.7672092208286, 1043.5592522548131, -6960.398629135001, 2653.1220730324535, -2951.0710373190072, 4767.540785888376, -2046.708679275943, 2143.1624685250276, -863.4963312913221, -1135.681577427059, 471.92416678605446, 773.2613195380202, -1442.8165995753973, -1419.0173414385774, -744.5767138616985, 317.8305565844893, 290.3181078264658, 281.0490334194068, -1050.2620160576105, -271.9539345946062, 956.9876040696837, 1250.7103032667706, 379.29746519626445, 267.9322485077216, 56.171440302040054, -224.5547365634734, 108.96166044504656, 690.9549086001848, -162.87171281314474, 370.96444502007154, -17.71291742176515, -121.80512647879613, 27.410416135319636, -8.401269069435727, -201.81970578108286, 32.06968407768136, 45.48317106065218, 70.22275857656984, 4.884275824528011, -37.79784371178449, 143.118547795089, -32.096625317136926, -116.25411951573795, 4.288098236959023, 4.31377658976178, 3.582620952325101, -55.883903984556056, -84.06542180723176, -68.6490926599367, -3.4518224535901183, 72.68897932013114, 17.87848856402107, 37.38101239036355, 35.71450708122231, -12.00206703902822, 11.074227004857974, 10.361854630876852, 12.15176892852277, -1.700404162077902, -7.75134205925837, 8.68794022860564, 9.241484404738815, 19.5313834508523, -5.980974840288731, 4.781318543469146, 0.7490695497912867, 1.4003732813858818, -6.171113140005673, -4.176168578869245, -2.9639302675937946, -7.734681866073939, -4.710329379124154, -1.8696458889224346, 5.369377226224426, -2.8743907310670203, 1.1578678927615549, 4.348948068716304, 1.0008067851949747, -2.3698945925785226, 5.237493352121305, 4.1334724553243545, 0.788128767889571, 1.4225990462199434, 4.339858562464045, 0.5630701117657964, 1.2668984819981084, 2.244085535683748, -0.7835805182630224, 2.750703740537512, 1.6032980139965929, 0.8737086483089094, 0.5048126085766933, -1.7883210432643288, -0.5394901528549063, -1.205267018225907, 0.6761790376969437, 0.08814100444661478, -0.3173904627042923, -0.3737273905586136, 1.8961606321278381, 0.2579754608686793, -0.643314073065441, -0.5774985299967774, -0.22151808550549745, 0.47546622650710546, -0.29927524653665305, -0.7165519596514542, 0.15030547688184726, -0.12057044942596917, 0.30969403645381366, -0.02579029847357006, -0.41590760150060113, 0.09841558319170929, -0.17039468116026413, 0.06318069645274349, -0.25133971183446846, -0.17662879519460972, 0.018418397865609393, -0.001779886023505206, 0.10471291582516074, -91373.57455652728, -208787.25232078243, 29665.062393503395, -4734.3571024210505, 13452.70148352165, 3420.3510823884253, -2749.0283602922245, 513.905190042532, -2354.20254521554, 1690.4401530561843, -5258.499471845163, 1622.579722213054, 282.8748454444926, -3585.230944429393, 729.3928221608783, 400.03375481119565, 58.56812124987454, 228.3414314485176, 343.4295164246154, 942.6496468791626, 1723.489643379493, 175.53735773910057, 1537.4722692690057, -1359.2437928072573, 1459.705437473308, -881.2550835010516, 1092.0599525000273, -886.2456046444939, -18.56111761533748, -627.9057012273997, 500.32192756041076, 134.1039473990926, -368.51151106625855, -188.2413328841103, -376.4588585576329, -5.878010476780332, 155.56427225268374, 283.5821427596936, -95.99294000161649, -65.08285073365755, 65.02486732165352, -301.2061061618401, 238.93902001752656, -148.66526407137792, 70.82182144319601, -214.576728500088, 121.15284243380233, 153.38943508750663, -99.1231038070816, 41.92458505730821, -87.06699723646437, -135.62992082897472, 18.965516401635227, -23.248670327343177, 8.039511939589943, 31.73960893435924, 54.00163068276629, 50.37947258175433, 15.600463830769627, -89.76254516089739, 2.421022941862347, -63.00189202728673, -6.11592524633798, 2.782837572896028, -12.531570431483459, -27.136687046776963, 10.46620648907966, -14.340447271926351, 64.35577258255425, -2.146351502014795, 16.290014354146564, 6.411804178344382, 22.945866098905384, 1.2902986956179134, 4.064637694898728, 16.415443674389735, 30.67328429181123, -11.550718907687134, -5.0207729172724385, -1.8703530464712514, -0.47810154701575147, 16.02063720052807, 23.003202023401407, 10.113241861028456, 15.343451263771243, -6.64635331745221, 4.000016197986447, -1.231702124940341, -3.3126945169327726, 9.673024120694777, -3.345107753361731, -9.940826953685303, 10.663390542081302, 7.174766003507301, 4.329626401100484, 6.842240033335962, 3.7889989528062387, 1.9652505833885385, 4.92481682713359, -4.884139119214552, -2.3154415956668686, -1.7961646326600942, -1.8820385775777133, 2.298427541953931, -2.530107697823837, 4.485155288428167, -6.081167247158923, 0.8645712082440369, 3.328273009939, 2.39792871612012, 2.904466210809666, 1.1832749762682795, -2.619957917141477, 0.8810168118724562, -0.9596993101022129, 2.2376809840109644, -5.259018441581333, 1.0188852874076986, -1.8536146312208786, 2.20228432678239, 0.4897657966959761, 0.2824897950623537, 0.7604826174979991, -0.07817832345037345, -2.361509058350986, 2.2446478493514697, -0.90908097852477, -1.6763953784083014]",-5.31,-3.33,-5.81,-3.99,1.0,CF,DIO,40.0,PEDOT:PSS,PFN,4.17,4.17,1.04,8.36,48.0