DA_mordred_pca,HOMO_D_eV,LUMO_D_eV,HOMO_A_eV,LUMO_A_eV,D_A_ratio_m_m,solvent,solvent_additive,annealing_temperature,hole_contact_layer,electron_contact_layer,PCE_percent,calc_PCE_percent,Voc_V,Jsc_mA_cm_pow_neg2,FF_percent
"[-96218.45766618998, 38190.55941397739, 9341.19863978244, -298.0321681723599, 3837.039845288656, -633.0815150821412, -1318.980794355729, 952.285808193773, 528.6042339012306, -265.75996339509254, 85.60403763240663, 327.51410203292335, 339.9238825739942, -217.3938336123946, 80.63195135367053, -89.32083633853233, 32.19492584684396, -21.519530699055707, -3.6266113552724115, -73.04368468656011, 86.79421267883791, 28.9157151412623, 61.36551771993493, -20.29937758864763, -20.5145225649866, 1.7418865694839667, -22.377181673057002, 12.371971410300219, 34.95291732805864, 10.187903617561325, 15.16604348820858, 8.612060636243209, -1.1743635221400766, 7.0376682218726625, -4.093627003889395, 9.922048209550361, -15.554840299560915, -5.613674452998811, -0.2972665085945745, 4.368352481075529, -3.6043195792310403, 1.354200703685919, 2.8516893216669104, -4.255469010620061, 8.299974464104451, 1.2791418187815111, 1.2654639155740988, -2.171801897186288, 0.7563528622149089, 1.6309678283868045, 0.8461705305940708, 3.200150728577338, 4.514637663770485, 2.047832060332592, 0.988495732690156, 3.0209744065138135, -1.0787642655477623, -0.5848165573459294, 0.7450505682325215, 0.7138952097940852, -0.4513392507860554, 0.44000043161623736, 0.9076636698868725, -0.7553614212014921, -1.1367214236829248, 1.4883333004282742, -0.6534390261587824, -0.2020478861539523, 0.5979438493412772, 0.35044047212350127, 0.5920200016964907, -0.4545510567545348, 1.2436977886366634, 0.06188974879205844, 0.28770923066137755, 0.34025436763747585, 0.054350949740208376, 0.15963437295462057, -0.5109982693033068, 0.3735134387368202, 0.6870145153430531, 0.38216412404326583, -0.20553217795980494, -0.08297866327442271, -0.09481622405384194, -0.0074888306561717854, 0.442508262678758, 0.06098427500299941, -0.4139541096843904, 0.14832844029545988, -0.294554145147611, 0.015892796356977712, 0.1548609075275289, -0.005654655004061704, 0.07842930267586645, -0.20841896255037717, 0.07855635365402769, 0.01820150849557578, 0.012441639298426566, -0.05940224021880214, 0.12084591158474112, 0.026787833651969892, 0.019668535058581682, 0.05537380493890609, -0.03933624965050253, 0.009307974571203914, -0.023474896973407267, 0.020049719383548492, 0.003215210697313786, -0.04194589694978035, 0.04089452902605473, 0.02749361263995076, -0.07262298298187164, 0.015379054954234306, 0.0506532373375812, 0.01506994111025417, -0.02377975685210143, 0.009711782809699865, -0.04845640783987859, 0.03322037544939782, -0.008444174408285043, -0.002255075440015908, 0.022455666638478533, -0.005795103590370054, 0.02421124183525336, 0.01760123567103644, -0.016655303062377946, 0.018813816162650987, -35133.7948384405, -8229.633002095004, -12056.006677875394, 2789.4971387186242, -6137.391894299175, 347.2184125819449, 313.56897363838834, -763.0529003245208, -753.2713027045285, -463.7277561870353, 442.3965848250751, 144.76451622384843, -82.11980750356622, -241.51593372271438, -166.11661214239564, 161.0117266220481, 156.82867720048182, 45.04865333330787, -64.48252064437057, -23.748315205729725, 175.35196382208807, 75.91403661606171, -286.96291437231935, 32.43950758749915, 86.82629792655737, 17.332913738685377, -52.109964316334626, 147.96654517479746, -66.74616426635947, -30.131339361474026, -64.6842293414586, -20.401781789495175, -60.814467118058936, -33.126806506498966, -10.042152655421425, -51.312256336249625, 3.144366245462294, -3.71627624153237, 36.40376072528973, 0.4548085410526568, 8.77647477218483, -28.125389876423775, 2.49569238193056, -12.913454340121639, 4.879924205036842, -2.3377624767900205, -6.672954601090133, 6.202739337502919, -10.893634984359561, 12.032465269856662, -12.063043989303566, -0.34303639091355365, 5.016332629152714, 0.12086901313429266, -9.726503251923347, 6.137316418082435, -7.076062334661124, 7.3653218625323404, 3.5070409455817924, 2.301233891752652, 4.71929931757742, -1.926768238609477, -5.728496834707801, 0.05692591901005528, -4.227503980921206, 0.19035190488374848, -0.8161738905036682, -0.4714746073762517, 0.016165936440852846, 1.5320458160517845, -3.625921731256579, -1.3255082942715024, 1.0395488339674301, -2.629665545987187, 0.2524077098567754, -0.25955818195747327, -0.9738252465763915, -0.4436497764515863, 0.3498051835956417, -0.5126149363315342, -1.3513245580317377, 0.2982577901396226, 2.0905817811936993, -1.423686297008441, -0.5684747340003078, 0.06286388557579237, 1.556243536792186, 0.47664310848808533, 1.3381005503037402, 1.3274012761810585, -0.18103683328045683, 0.13158711423599634, -0.35216959119522606, 0.24205021276454275, -0.19716096928100413, 0.3411096425350699, 0.8983261097286253, -0.17492589746772325, -0.26859509238574053, -0.13780411398829884, 0.2481245213135157, -0.23952231622609954, -0.5478870274515413, 0.5484971724321479, 0.500298126046161, -0.06133469645540579, -0.3248140481935957, 0.313231347131103, 0.63465776568537, 0.5975958356568718, -0.21144062004099506, -0.6749983329678217, -0.32992632468938865, 0.3033181272449559, -0.12238950451054809, 0.06097724241096092, 0.2639722379565246, -0.2236154184593273, 0.06848499166746613, -0.30866773947200965, -0.13429432396519503, -0.2605157287139417, 0.0014308004863301527, 0.11389554910299449, -0.08035043575031331, -0.3428563737769905, -0.05785525732550667, -0.006029155567380151]",-5.297714285714285,-3.4170000000000003,-5.574146341463415,-3.915,1.0,CB,DIO,160.0,MoOx,ZnO,11.21,11.21,0.899,16.81,74.2
"[-96218.45766618998, 38190.55941397739, 9341.19863978244, -298.0321681723599, 3837.039845288656, -633.0815150821412, -1318.980794355729, 952.285808193773, 528.6042339012306, -265.75996339509254, 85.60403763240663, 327.51410203292335, 339.9238825739942, -217.3938336123946, 80.63195135367053, -89.32083633853233, 32.19492584684396, -21.519530699055707, -3.6266113552724115, -73.04368468656011, 86.79421267883791, 28.9157151412623, 61.36551771993493, -20.29937758864763, -20.5145225649866, 1.7418865694839667, -22.377181673057002, 12.371971410300219, 34.95291732805864, 10.187903617561325, 15.16604348820858, 8.612060636243209, -1.1743635221400766, 7.0376682218726625, -4.093627003889395, 9.922048209550361, -15.554840299560915, -5.613674452998811, -0.2972665085945745, 4.368352481075529, -3.6043195792310403, 1.354200703685919, 2.8516893216669104, -4.255469010620061, 8.299974464104451, 1.2791418187815111, 1.2654639155740988, -2.171801897186288, 0.7563528622149089, 1.6309678283868045, 0.8461705305940708, 3.200150728577338, 4.514637663770485, 2.047832060332592, 0.988495732690156, 3.0209744065138135, -1.0787642655477623, -0.5848165573459294, 0.7450505682325215, 0.7138952097940852, -0.4513392507860554, 0.44000043161623736, 0.9076636698868725, -0.7553614212014921, -1.1367214236829248, 1.4883333004282742, -0.6534390261587824, -0.2020478861539523, 0.5979438493412772, 0.35044047212350127, 0.5920200016964907, -0.4545510567545348, 1.2436977886366634, 0.06188974879205844, 0.28770923066137755, 0.34025436763747585, 0.054350949740208376, 0.15963437295462057, -0.5109982693033068, 0.3735134387368202, 0.6870145153430531, 0.38216412404326583, -0.20553217795980494, -0.08297866327442271, -0.09481622405384194, -0.0074888306561717854, 0.442508262678758, 0.06098427500299941, -0.4139541096843904, 0.14832844029545988, -0.294554145147611, 0.015892796356977712, 0.1548609075275289, -0.005654655004061704, 0.07842930267586645, -0.20841896255037717, 0.07855635365402769, 0.01820150849557578, 0.012441639298426566, -0.05940224021880214, 0.12084591158474112, 0.026787833651969892, 0.019668535058581682, 0.05537380493890609, -0.03933624965050253, 0.009307974571203914, -0.023474896973407267, 0.020049719383548492, 0.003215210697313786, -0.04194589694978035, 0.04089452902605473, 0.02749361263995076, -0.07262298298187164, 0.015379054954234306, 0.0506532373375812, 0.01506994111025417, -0.02377975685210143, 0.009711782809699865, -0.04845640783987859, 0.03322037544939782, -0.008444174408285043, -0.002255075440015908, 0.022455666638478533, -0.005795103590370054, 0.02421124183525336, 0.01760123567103644, -0.016655303062377946, 0.018813816162650987, -35133.7948384405, -8229.633002095004, -12056.006677875394, 2789.4971387186242, -6137.391894299175, 347.2184125819449, 313.56897363838834, -763.0529003245208, -753.2713027045285, -463.7277561870353, 442.3965848250751, 144.76451622384843, -82.11980750356622, -241.51593372271438, -166.11661214239564, 161.0117266220481, 156.82867720048182, 45.04865333330787, -64.48252064437057, -23.748315205729725, 175.35196382208807, 75.91403661606171, -286.96291437231935, 32.43950758749915, 86.82629792655737, 17.332913738685377, -52.109964316334626, 147.96654517479746, -66.74616426635947, -30.131339361474026, -64.6842293414586, -20.401781789495175, -60.814467118058936, -33.126806506498966, -10.042152655421425, -51.312256336249625, 3.144366245462294, -3.71627624153237, 36.40376072528973, 0.4548085410526568, 8.77647477218483, -28.125389876423775, 2.49569238193056, -12.913454340121639, 4.879924205036842, -2.3377624767900205, -6.672954601090133, 6.202739337502919, -10.893634984359561, 12.032465269856662, -12.063043989303566, -0.34303639091355365, 5.016332629152714, 0.12086901313429266, -9.726503251923347, 6.137316418082435, -7.076062334661124, 7.3653218625323404, 3.5070409455817924, 2.301233891752652, 4.71929931757742, -1.926768238609477, -5.728496834707801, 0.05692591901005528, -4.227503980921206, 0.19035190488374848, -0.8161738905036682, -0.4714746073762517, 0.016165936440852846, 1.5320458160517845, -3.625921731256579, -1.3255082942715024, 1.0395488339674301, -2.629665545987187, 0.2524077098567754, -0.25955818195747327, -0.9738252465763915, -0.4436497764515863, 0.3498051835956417, -0.5126149363315342, -1.3513245580317377, 0.2982577901396226, 2.0905817811936993, -1.423686297008441, -0.5684747340003078, 0.06286388557579237, 1.556243536792186, 0.47664310848808533, 1.3381005503037402, 1.3274012761810585, -0.18103683328045683, 0.13158711423599634, -0.35216959119522606, 0.24205021276454275, -0.19716096928100413, 0.3411096425350699, 0.8983261097286253, -0.17492589746772325, -0.26859509238574053, -0.13780411398829884, 0.2481245213135157, -0.23952231622609954, -0.5478870274515413, 0.5484971724321479, 0.500298126046161, -0.06133469645540579, -0.3248140481935957, 0.313231347131103, 0.63465776568537, 0.5975958356568718, -0.21144062004099506, -0.6749983329678217, -0.32992632468938865, 0.3033181272449559, -0.12238950451054809, 0.06097724241096092, 0.2639722379565246, -0.2236154184593273, 0.06848499166746613, -0.30866773947200965, -0.13429432396519503, -0.2605157287139417, 0.0014308004863301527, 0.11389554910299449, -0.08035043575031331, -0.3428563737769905, -0.05785525732550667, -0.006029155567380151]",-5.297714285714285,-3.4170000000000003,-5.574146341463415,-3.915,1.0,CB,DIO,25.0,MoOx,ZnO,11.05,11.05,0.9,17.03,72.1
"[253843.9871973587, -57261.97403843735, -13955.3110949334, 4981.404963529115, 480.9607524905605, 2737.544065212877, -3538.9995065335866, 459.57794809142234, 6065.28014890069, -238.39239726858614, 422.1855050068748, -4513.918275511556, -2206.695916563512, -484.9791092288755, 1139.4030625497983, -1129.5561018596318, -422.1633557291948, -922.3985217196628, 1178.9025266310375, 787.437175722521, 409.67969609584, -305.0050982412474, 258.07117058838, -138.00510243155526, -357.3432580384295, -229.52021516360216, -282.501040306897, 280.1572487354598, 631.7884521205647, 159.06419837089027, 59.83097896008076, -59.86967987845421, -37.72267342292488, -259.6765538183062, 165.70817271846946, -84.95429802872245, 87.5919805488532, -104.1971238167049, 20.222825253973255, 84.74639552574436, 57.3259043358337, -144.46903885583814, -50.78347436005285, -64.32967876580062, -32.73667898458298, -69.94826716526538, 3.424800154499298, 40.866364484034136, 63.65631283987623, -19.815249992623336, 40.80147123935478, -4.071365196693877, -5.206291460540007, -24.32481226269768, -4.210688652202091, 16.038853430281215, -16.732911682103698, -10.460866599145964, 5.889342516301895, -3.3691497315128416, -15.895031864058971, -9.964265796819006, -0.4777052691822945, 19.047945072273347, 11.135952467004273, -1.8261363170879665, 4.501807905320728, -8.867396650281636, -1.2829241461582939, -7.864307264130977, -7.247491632603243, 8.815939781383491, -3.9795378690160117, 3.768822027826353, 0.5464374949040511, 0.7493498320158132, -5.28187532754888, -0.9431476592306645, -6.121863260540246, 0.02403453198815697, -2.4491711847984377, -0.04694659004639412, -2.7948466908936993, -1.1892158625896085, -0.45462192991554673, -1.75887337291433, -1.1316478976762787, -0.7345706719098146, -2.427253856258414, -2.3239387672073173, 1.8393294803621139, -1.6760151228692575, 0.260965251420175, 0.7805750077597857, 0.8453161554126236, 2.5184118360391423, -0.25486510703977094, 0.30528637017977367, 1.3711610860432906, 0.5340013455221893, 1.4991259284386977, 0.9670743520071632, 0.981601159788186, 0.5542649165365496, -0.35319419145634123, 0.5944372128440607, -1.1464123542868978, 0.30516502694728054, -0.20756398685008026, 0.602784261190477, -0.07152595682203433, 1.048776658735295, -1.0773051680604486, 0.07300636871980437, -0.15810370612540048, 0.0076497279915854755, -0.07633498849692821, 0.1531558455883446, -0.46709714092109067, -0.18909277362075727, 0.17633276459507294, -0.11238210041545926, -0.026366497638424802, 0.008531403835767115, 0.08411119374514264, 0.03457796199617391, -0.08570819375599292, 0.030568001442589754, -90094.476415222, -234564.2076615496, 10048.015165776069, -30629.51753378706, 3616.130117227016, -1904.7962621108227, -3174.0247373310776, 1714.0327214959334, -151.98166498985597, -1062.206393233846, -402.31051696317627, 980.5457798754896, -1437.1183613045787, 674.1328674880302, 205.89723265466137, -963.0146624672891, 1382.204528660923, -1830.8508181430057, -1521.3205781640272, -759.3829118361583, 225.71122875530273, -244.94676245343294, 416.91855813520465, 331.06706120798356, -4.769380550547567, -219.14919605793557, -468.65222241525873, 117.7113461140677, 12.409685827753947, 43.85519435349681, 464.48152488313445, 326.90428870320375, -89.10044337261701, -349.4798430179279, -451.1686422532101, 179.9731630085917, 112.01285771260541, 92.48221399571247, -263.72259139855856, -30.1678826352869, 228.6064543280119, -21.841620070866384, -85.99179211215454, 93.02464094466004, -117.08472597175736, 56.191849659363356, 27.497862169258696, -118.16293939819082, 45.19654161921821, -76.00970315364951, 50.21982565529963, -44.74119081280736, 15.481715512007383, -27.36038979297325, 8.850261299319868, -10.149899292657892, 5.000219952541329, 48.611619009971605, 5.231099596390891, 15.291700922618588, 14.214318441594997, 18.886343670216988, -54.93827568861292, -6.980702704991671, -15.970793675487073, -34.48686434258713, -18.998729325792322, -9.71805023176961, 14.302544401171398, -11.538606636230043, -5.976443775089564, 4.399858677946492, 8.112994588573315, 5.902567749408796, -21.501490817381168, -3.452478629624096, 2.624705298085935, 15.060639910177475, 6.797592278596738, -26.15408080372839, -4.810214067757535, -20.406909827381966, -4.8056371569366405, -10.095760170759917, -10.437569213904538, -7.769060658056901, -8.674276546844595, 7.915925295447565, -2.7557745284969215, -11.628682398846522, 5.529221967665734, 1.6208586392988025, 0.44324900377279164, 7.7128774883453275, 2.080057142116331, 1.8422064467801533, 20.66685673186312, -1.962140820739279, 0.7650852666591081, 7.600188367590874, 3.25437211988244, -3.780587667151959, 10.015239418941922, -6.164266145303072, -6.688637893724476, 0.4925284823541958, -2.3256396412646865, 0.9728104376949744, 8.696948049808512, -9.010316077843079, 3.2066343546748186, 11.804238019053912, -5.154139081657064, 5.486726985065957, 0.5423863350995619, -4.986638141326267, 5.077712531202977, -1.7277548460737968, 0.6821787284622047, -0.29965849608127826, 2.8090618153035205, 4.152123323216967, -1.0561664348483184, 5.082103722251489, 2.8689536250529812, -0.03327948427936889, 1.881159515836174, -0.6428287156248018]",-5.23,-3.26,-5.93,-3.5,0.5,DCB,_,90.0,PEDOT:PSS,LiF,2.78,2.79,1.04,4.79,56.0