DA_mordred_pca,HOMO_D_eV,LUMO_D_eV,HOMO_A_eV,LUMO_A_eV,D_A_ratio_m_m,solvent,solvent_additive,annealing_temperature,hole_contact_layer,electron_contact_layer,PCE_percent,calc_PCE_percent,Voc_V,Jsc_mA_cm_pow_neg2,FF_percent
"[-26474.230743626817, 58268.40681317986, -12806.902419965832, -29918.46418570647, -23645.415211755753, -3232.519043874806, 20479.11516874133, 10756.261191678464, 19151.728294931625, 12224.30502109978, 11315.658846165368, 4979.493156947024, 501.9497351374649, 1764.0179485806102, 606.7472780781007, -825.3898663104833, 4354.994734126692, 2797.1740519476434, -635.7393749433039, 514.1298511024445, 582.927641014961, -1149.0003207091909, -354.13394570608403, -632.5837938983641, 351.2825230034381, -458.8476868164879, 349.46357318483365, 365.25221818989394, 437.4680776320066, -257.7243954035928, -229.04463167167668, 99.5231306773592, -27.903171789607, -266.88551787175095, -403.4954563775243, 152.988009013034, -84.65187431148513, 181.76002725161092, -150.94944933450475, -67.94230334520248, 56.43171146641749, -94.40507487638396, -16.757706445247656, 133.54672668183636, 13.645049537789376, 14.79060380432982, 18.930362672989844, -3.4460832610959233, -11.165673662813873, 26.270295438641384, -87.2586593540284, 2.6172618235621066, -40.31216334638207, -0.008199336782020339, -2.0071159433452195, 0.7239609991833422, -33.09495021945465, 30.374631882236482, 1.0121524379526186, 3.3456161374601336, -6.337591752474096, -3.5202674494240647, -1.6723951124483634, 0.5854862009127721, -0.775155378356776, -3.014293526212432, 4.312532844101824, -5.4585009235702895, -1.5899031553075744, -3.605821244272531, -5.151357175501671, 4.536453022876147, -3.478569795884049, 3.8565986177266876, 3.0908032666493916, -0.6095355798780453, 3.565273303595914, 2.0605239739637065, 1.902042072701772, 0.15883615363801695, -0.6307693032616477, -2.960026607334715, -2.656907421639028, -1.2441245406916561, 1.4960666409771868, -1.430937426322064, -4.557344056852325, -2.791394962953273, -2.4500601906426436, -0.6852266539703367, 0.5963125410589782, 0.3950746390985902, 1.5166301647658011, 0.3479751645112641, 2.433148076630967, -0.754328407737729, -0.48211994642933753, 0.6787961483556302, -0.16663328469482508, 0.3641098524480304, -0.09417983431621835, -0.008489093021077032, 0.9871466443699841, 0.020643626262540238, -0.09667861065849215, -0.12182759480137229, -0.558493012652665, -0.9087827574156151, 0.33147570420945605, 1.3170143696266385, 0.3000594814206474, 0.12741155696296502, 0.029345411860449033, -0.2390686757427094, 0.5640560251010847, 0.19541767063457716, 0.0814451386227999, -0.4870171663203866, -0.03812598085416363, -0.4268990295993538, -0.26468631614399785, -0.10503997575289326, 0.14499208145252673, -0.007328419393360264, -0.018565189803151583, -0.14802220726023485, -0.13298740438731382, 0.05330757385094387, -39240.57973318528, 20500.70181160768, -742.7372891537739, 23239.986168659925, -1647.5053877763694, -1482.2879929554504, -6600.964661204996, 546.251203042571, -637.1841402380221, -1310.7812883587976, 3386.685079883572, 1427.9643059346781, -674.1201629752072, -1243.5852171420077, -816.2548454178329, 291.2043899971375, 287.9526615159073, -1154.2737005585755, -375.97659435008075, 35.18982560844995, -517.3588424672718, -281.3314781065094, 379.43550474139863, -655.8684483312554, 77.3163868857684, 31.441016053252326, 152.82345306039068, -227.42020407311205, 211.77085253675156, 230.23656343019672, 49.030211448542836, -171.11107740328458, -20.433426773430142, 210.55990352170073, -12.807480532862229, -22.93984600593121, 39.33791194475964, 2.1576417673450123, 63.32365166602841, -90.83696860940627, 112.29918494598897, 27.75557737246524, -75.16547282769282, -27.491732512033913, -36.669753046768164, 37.54841621139991, -37.91964189385969, 16.455332480637736, 15.688236181382791, -14.061540930709388, -4.1875202397122155, 26.012441986223543, 15.471901190516064, 16.880797607156808, -0.1697433152896224, -12.999865635973244, 30.127025242178362, -2.6730881608369828, 11.87733929539489, -11.882349106357509, -10.579334589713584, -5.009180789475746, -0.12125708729404039, -10.06799072017468, -7.708771478670442, -1.3579479139590624, 1.600211600058234, 0.9315817087016853, 7.92882408138706, 10.478484008662893, -5.556939493567031, -4.816810680988548, 0.7704379529638956, -1.3305876016983085, 3.011655355842536, -5.27229311307282, -2.8528541862897363, -0.4297894488262264, 0.5101130029746237, -3.4444092399498594, -2.0524762321975465, -1.4237299686960991, -4.538966235950822, 1.5545320542809478, 0.5156248968527706, -0.34327771638680815, -2.6540235596619155, -1.5179146335051037, -5.022119686868136, -0.3196196564359175, -3.4371138619644093, -1.0631351140103966, -0.13371239944401836, -2.5862962782580503, 2.229215623816513, 1.5320306194811915, -2.079984091724034, -0.36729773024961965, 0.4466187282066769, -2.7360369166024867, -0.705377415767428, 1.6158572321493354, -0.0700267283282986, -0.8949435680587224, 0.45140351343523655, 0.7048737120320752, 1.072065362578663, -0.2479777070139102, 0.03994688446205075, -0.9552189223492409, 0.5796904401723353, 0.23128578974454506, -0.1833634052416393, -0.19967364138103427, 0.1469681666517184, -0.41026326371600597, 0.031261319947089916, -0.1632368826522086, -0.013832586558201854, 0.1215994183610043, 0.7937531569094052, 0.03517915608394728, 0.34526686929627104, 0.02732240915219908, 0.17256062077923673, 0.05345929406843819, 0.28149715588719815, -0.17873941970506912]",-5.42,-3.29,-5.526666666666667,-3.8515384615384622,0.667,CF,_,150.0,PEDOT:PSS,PDINO,10.23,10.23,0.962,16.35,65.03
"[-36941.82923348556, 105266.9288767728, -18337.23138123458, -11447.15031215424, 12601.201328966748, 1547.028195998998, -2013.1398799456554, -4460.187761357802, -5582.0092381830855, -6366.67506818065, -1171.640306259234, 671.831148057585, -1015.4077950338068, 893.8037395959514, 159.98217942899726, -574.9385388237431, 1956.383154959003, 594.104017665422, 690.3411852804026, -1975.5684621578905, -866.3418748831032, -1156.926762966525, 149.62784500744624, -1171.6941639543945, 1127.4466376710388, -427.82789576806465, 488.6966229671266, 378.0405186049378, 196.0838996350477, 323.90676432848073, 377.7945060513302, 403.5976921876505, -526.4177503096821, -549.2290293308614, 88.80159120423264, 480.75694651432974, 633.4700132603764, 11.177726887529644, 345.54388771298295, 37.11692502454211, 14.711640975029795, 146.74993312648354, 68.95025383695832, 74.25239257734121, -41.44572401963944, 106.99136557795677, -34.957404677037864, -28.900095331416658, -19.880051458865076, 128.2773643894909, 8.315738834163078, -34.969366773122786, -28.276277523833457, -0.3905800764428875, 52.17562651148242, 44.05182028411256, -51.49439344066741, 30.52576547997926, -29.760024867009776, -50.64212141182455, 42.71143139395806, 0.43130208901906997, -24.63030537059504, -0.8391791981583694, 10.83511181587937, 6.453230323192827, -10.36149304725906, 1.1649142950854632, -8.916818810667763, -29.21653988362931, -5.278527385410229, 29.807536043450813, -0.598856553716629, 7.37134555047961, -3.8688910428169905, -8.575004080969023, 8.926532358736097, 3.128202093498926, 8.808576132749938, 6.963186816439176, 2.725645306801141, -13.79904087011684, -0.4346567556980645, 9.175111703926952, -9.391029900873932, -17.795221442623934, 9.755095665168325, -1.625464947601749, -1.6994019644348022, -6.800854740602686, 1.2581364521762737, -1.3723475927107032, 3.2757403792980817, 0.05329208836265398, 1.3807501567801266, 2.4877435187488572, -5.633527723503484, -3.406943381698099, -4.888469086024031, 0.5380398409287057, 1.381648888691025, 0.3171003797584717, 3.0366575623727208, -3.1644824448675415, -1.4168578267929068, -0.43638109321751983, -0.4059216476084515, -3.3572718509172894, -1.235792539203884, 1.538240178823087, 1.5560559868396062, 0.38476430256691607, 0.14187809676956853, 0.8422736073953301, 1.238299376568861, 0.29464492221059757, 0.7885775734567702, -0.31965024694498423, 0.16073504646879755, 0.4801923409153437, -0.34348931125123094, -0.25331227122583044, 0.18273756898476634, 0.45997349351412353, 0.3938652788203001, -0.15686913439509453, 0.3558472521677931, -0.03845596810546681, -39240.57973318528, 20500.70181160768, -742.7372891537739, 23239.986168659925, -1647.5053877763694, -1482.2879929554504, -6600.964661204996, 546.251203042571, -637.1841402380221, -1310.7812883587976, 3386.685079883572, 1427.9643059346781, -674.1201629752072, -1243.5852171420077, -816.2548454178329, 291.2043899971375, 287.9526615159073, -1154.2737005585755, -375.97659435008075, 35.18982560844995, -517.3588424672718, -281.3314781065094, 379.43550474139863, -655.8684483312554, 77.3163868857684, 31.441016053252326, 152.82345306039068, -227.42020407311205, 211.77085253675156, 230.23656343019672, 49.030211448542836, -171.11107740328458, -20.433426773430142, 210.55990352170073, -12.807480532862229, -22.93984600593121, 39.33791194475964, 2.1576417673450123, 63.32365166602841, -90.83696860940627, 112.29918494598897, 27.75557737246524, -75.16547282769282, -27.491732512033913, -36.669753046768164, 37.54841621139991, -37.91964189385969, 16.455332480637736, 15.688236181382791, -14.061540930709388, -4.1875202397122155, 26.012441986223543, 15.471901190516064, 16.880797607156808, -0.1697433152896224, -12.999865635973244, 30.127025242178362, -2.6730881608369828, 11.87733929539489, -11.882349106357509, -10.579334589713584, -5.009180789475746, -0.12125708729404039, -10.06799072017468, -7.708771478670442, -1.3579479139590624, 1.600211600058234, 0.9315817087016853, 7.92882408138706, 10.478484008662893, -5.556939493567031, -4.816810680988548, 0.7704379529638956, -1.3305876016983085, 3.011655355842536, -5.27229311307282, -2.8528541862897363, -0.4297894488262264, 0.5101130029746237, -3.4444092399498594, -2.0524762321975465, -1.4237299686960991, -4.538966235950822, 1.5545320542809478, 0.5156248968527706, -0.34327771638680815, -2.6540235596619155, -1.5179146335051037, -5.022119686868136, -0.3196196564359175, -3.4371138619644093, -1.0631351140103966, -0.13371239944401836, -2.5862962782580503, 2.229215623816513, 1.5320306194811915, -2.079984091724034, -0.36729773024961965, 0.4466187282066769, -2.7360369166024867, -0.705377415767428, 1.6158572321493354, -0.0700267283282986, -0.8949435680587224, 0.45140351343523655, 0.7048737120320752, 1.072065362578663, -0.2479777070139102, 0.03994688446205075, -0.9552189223492409, 0.5796904401723353, 0.23128578974454506, -0.1833634052416393, -0.19967364138103427, 0.1469681666517184, -0.41026326371600597, 0.031261319947089916, -0.1632368826522086, -0.013832586558201854, 0.1215994183610043, 0.7937531569094052, 0.03517915608394728, 0.34526686929627104, 0.02732240915219908, 0.17256062077923673, 0.05345929406843819, 0.28149715588719815, -0.17873941970506912]",-5.46,-2.92,-5.526666666666667,-3.8515384615384622,0.667,CF,_,150.0,PEDOT:PSS,PDINO,10.71,10.71,0.974,16.45,66.87
"[-27828.555791181407, 45075.24796179129, -10482.331054890561, 4999.086967389383, -984.5061270694268, 3040.7028199358574, 5114.5227236270475, 6934.084320188042, 4253.362285502762, -883.1284054609714, -1627.0036742371917, 2210.42362522742, -1367.3899739844562, 3477.7473639894515, 4299.131754083313, 1093.1779473805773, -1006.7637039638353, -811.0011639278496, -550.2851928227053, 1559.2510272839586, -1228.572226422985, 539.6726319933348, 286.0242742676119, -1340.6957254558529, 1498.3824314190092, -305.04406820160534, -450.6257129737962, -440.5747323727136, -546.0239667026567, 94.39828119259616, 497.7721366251703, -97.72488366540745, 253.42871109405291, 43.94947631372046, 735.6237658941875, -74.39220841595565, -17.003013048078053, 511.00887135022316, 333.97010656568995, -23.912244768917745, -300.99168676680836, -9.278559299477493, 418.63686938038677, -166.57636977742368, -142.37658330911748, -7.092064199061205, 61.79135986595577, 21.006809969286476, -46.21353607196056, 37.462402941353645, 13.691457658354324, 33.65118859285567, 6.160657434208304, -77.08536712711906, -16.96604437787578, 4.275335460868419, 31.830170224622023, 6.148376067167327, -29.324854042176607, -32.659524411075765, -21.47858330021111, -23.673996669964353, 28.247526766612125, -14.941109796813684, 2.2693967057924826, -0.023463275399265626, -2.880421715587218, -15.880024396446242, 2.485635688582697, -1.988826609514403, -15.321397440836543, -23.266096788188428, -4.475934701035548, 8.848657396331316, 0.6745974245356265, -5.4847935158479615, 1.9925694489006887, -0.2988412860928147, 10.581262663319196, 10.317664750615013, -3.0338348180151087, 3.050816545688745, -4.209950714704782, -4.806528878101268, 2.6883738343015224, 1.162829855182892, -11.588351297939713, -6.02483404721179, -8.975214913273767, 8.74457931152207, -2.5630903435608445, -0.37180560582583766, 1.8973704088552577, 1.2512334998519625, 0.5215891001313784, -0.7988048632159703, -0.7747567563728488, 3.547123911303146, 2.786239943654852, 0.5680996646245591, -0.8782558812608876, -0.48703536713581563, 1.4989359866593297, 1.3160527708581107, 0.4989109025898455, 0.38303922269907886, 0.17146306779398657, -0.35484297965678735, 2.3556768773763794, 1.3492697744162574, 0.46107098871055463, 0.7775008829081833, -0.5528826137035514, -1.1317463004772845, 0.8910699903903847, 0.3723893703449441, 0.07722321579498725, -0.7491949752027711, 0.1069799689633335, -0.3993554737623617, -0.339219085399284, 0.1569449739926707, 0.36801878723321124, -0.02709179182286192, -0.07756816923576082, -0.13571770324352173, -0.2712791528782308, 0.27617057113504373, -39240.57973318528, 20500.70181160768, -742.7372891537739, 23239.986168659925, -1647.5053877763694, -1482.2879929554504, -6600.964661204996, 546.251203042571, -637.1841402380221, -1310.7812883587976, 3386.685079883572, 1427.9643059346781, -674.1201629752072, -1243.5852171420077, -816.2548454178329, 291.2043899971375, 287.9526615159073, -1154.2737005585755, -375.97659435008075, 35.18982560844995, -517.3588424672718, -281.3314781065094, 379.43550474139863, -655.8684483312554, 77.3163868857684, 31.441016053252326, 152.82345306039068, -227.42020407311205, 211.77085253675156, 230.23656343019672, 49.030211448542836, -171.11107740328458, -20.433426773430142, 210.55990352170073, -12.807480532862229, -22.93984600593121, 39.33791194475964, 2.1576417673450123, 63.32365166602841, -90.83696860940627, 112.29918494598897, 27.75557737246524, -75.16547282769282, -27.491732512033913, -36.669753046768164, 37.54841621139991, -37.91964189385969, 16.455332480637736, 15.688236181382791, -14.061540930709388, -4.1875202397122155, 26.012441986223543, 15.471901190516064, 16.880797607156808, -0.1697433152896224, -12.999865635973244, 30.127025242178362, -2.6730881608369828, 11.87733929539489, -11.882349106357509, -10.579334589713584, -5.009180789475746, -0.12125708729404039, -10.06799072017468, -7.708771478670442, -1.3579479139590624, 1.600211600058234, 0.9315817087016853, 7.92882408138706, 10.478484008662893, -5.556939493567031, -4.816810680988548, 0.7704379529638956, -1.3305876016983085, 3.011655355842536, -5.27229311307282, -2.8528541862897363, -0.4297894488262264, 0.5101130029746237, -3.4444092399498594, -2.0524762321975465, -1.4237299686960991, -4.538966235950822, 1.5545320542809478, 0.5156248968527706, -0.34327771638680815, -2.6540235596619155, -1.5179146335051037, -5.022119686868136, -0.3196196564359175, -3.4371138619644093, -1.0631351140103966, -0.13371239944401836, -2.5862962782580503, 2.229215623816513, 1.5320306194811915, -2.079984091724034, -0.36729773024961965, 0.4466187282066769, -2.7360369166024867, -0.705377415767428, 1.6158572321493354, -0.0700267283282986, -0.8949435680587224, 0.45140351343523655, 0.7048737120320752, 1.072065362578663, -0.2479777070139102, 0.03994688446205075, -0.9552189223492409, 0.5796904401723353, 0.23128578974454506, -0.1833634052416393, -0.19967364138103427, 0.1469681666517184, -0.41026326371600597, 0.031261319947089916, -0.1632368826522086, -0.013832586558201854, 0.1215994183610043, 0.7937531569094052, 0.03517915608394728, 0.34526686929627104, 0.02732240915219908, 0.17256062077923673, 0.05345929406843819, 0.28149715588719815, -0.17873941970506912]",-5.56,-3.06,-5.526666666666667,-3.8515384615384622,0.667,CF,_,150.0,PEDOT:PSS,PDINO,9.63,9.62,0.99,15.89,61.18