DA_mordred_pca,HOMO_D_eV,LUMO_D_eV,HOMO_A_eV,LUMO_A_eV,D_A_ratio_m_m,solvent,solvent_additive,annealing_temperature,hole_contact_layer,electron_contact_layer,PCE_percent,calc_PCE_percent,Voc_V,Jsc_mA_cm_pow_neg2,FF_percent
"[-107423.09370752568, -75573.72491442433, 2691.8991779816492, -4359.288094612307, -3859.7433060644207, -1847.8519273013371, -1889.0743954606046, 1536.351734759291, -2038.0020710130102, -250.9250961308735, -579.2097281665674, -1138.371813353039, 204.28165435409824, 1120.5263493763962, 317.06596906400245, 630.8686331437411, 889.6374051675624, -388.76071594011614, 265.08924938685357, 87.46695323995448, -290.4277077541242, 118.52734543177048, -21.841302941700178, -79.92039500364967, -106.80509476698319, 390.7242110606642, 95.91012287047195, -154.9672961555753, 45.522833100910816, 78.23126669788178, -159.1592313468504, 85.6466254427508, -164.79687745355793, -34.80586067308105, -145.24623919134763, 179.33804085231037, 10.870623860225791, 38.91769152893053, -101.24106298447285, 44.871537325894835, 55.99791494195627, 51.015982579172885, 66.35246456262726, 7.7204639955288314, -18.694005560727533, 38.41402220616827, -17.47776737016899, 36.31767454703578, 21.33878639572856, -58.52589480573931, 9.369963856855833, -16.767002774809704, 9.689020839144938, -5.982688485175302, 4.133014765113181, 36.426301770686116, 7.540154096546431, 27.53704738719575, -17.957480001463566, 16.557684498774563, -18.69000892493894, -7.08616041952439, 14.378467751852185, -12.217751194587123, -2.6161689295191373, -5.837523995624508, -2.1490044295476594, 10.056334922144082, 1.3501069728939399, 0.05224351803807892, -16.535605581159224, -5.6702918026516045, -3.8484012473147304, 4.929540958358878, -6.355948922614054, -3.800236085371594, -2.6256962495340304, 7.507438958084677, -3.157766304370318, -2.518426304965004, -2.749228669282047, -0.6468479501061353, -2.80624798789799, -2.2833956293754163, 0.28996019696587894, 2.3887575586119, -0.7819702132318955, 3.0193525969544197, 0.7428021200144546, 0.8279010023571232, 2.95785631266628, -2.205478006645592, 1.8411136289687953, 0.7345581680427404, 2.439750641051603, 0.36041177710603023, 1.30115670516924, 0.03257631952655515, -0.6483428695408122, -1.6363495221230844, 0.3118005621253772, -0.7354061353540793, 0.3136123038264351, 0.4911308715796139, 0.37365649741267415, -0.5496605495964104, 0.23560728430111055, 1.2528802085125612, -0.9492348233973082, 0.1705445119902258, 0.2171179919947761, 0.08546418885482687, -0.33474926070695243, -0.8540277896909174, -0.2842139993798014, -0.4709718253734998, 0.16880203515812653, 0.4692524371131013, 0.0006185463064909413, -0.18036026895958912, -0.2853763147508488, 0.0471983352172991, -0.3432022814872626, -0.09027095934164464, 0.12916310238986028, -0.2916012655567499, 0.18362146879040253, 0.1110090588083068, -44306.656448967886, -43672.77614371246, 1316.0816049956188, 2950.775750798506, -1872.4685668108687, -9317.982084091549, 1899.8268699070431, -2603.284504669837, 965.8893076719492, 1857.6088824844169, -3249.0088345096055, 960.4767681237322, -1082.8095362573558, 500.6208761287088, 729.8899215926492, 516.3873378628222, 110.09258163618988, -315.88578813746085, 164.54094542198064, 10.37569751474632, -115.88836309763076, -289.55124531930346, -826.2927187264543, -573.3990703490991, -20.266337001036618, 622.0854848137959, -546.6984761304058, -747.2141080880813, 381.6211702559554, 186.7289298938128, -87.20630593939491, -56.66634895121339, -364.46704669853443, 65.58457150576834, 73.48908056849105, -152.5022864468546, 222.24438532122818, -147.7525413603006, -181.25354107679786, 297.3946706579023, -179.09137138790845, 109.80879461750763, 140.46289192921182, 41.46118493245822, -87.21237342959697, -116.85924647940485, -45.61003996140307, -20.356235770103567, -2.2915870771242766, -25.112273125718325, -0.28218039931176264, 63.30200090131899, -27.40723561156193, -10.999573992401523, -29.034898048022512, -10.604474724264335, 58.48877549112376, -5.223862097662007, -16.43009426343275, 31.459466021076025, -14.505272399549831, 14.344531970029365, 15.565966447152974, -11.932187880114384, 7.374293343721149, 17.537872855808843, -24.708578028970894, -4.80733237952936, 8.474093764694336, -12.656532514125416, 5.1011358853892155, -0.6210194398122414, -3.4522659240653013, -23.133969544274688, 21.12253817110384, -5.154991523324625, -3.529783129784281, -8.48202717319758, 14.752865233676431, 6.026830829152125, 1.4221241761189227, -15.418753745992433, 21.421856098998525, 14.472664493095913, 0.2905135037476043, 4.0947055338426495, -19.341003322041857, -0.12852013420492625, -10.517772858582989, 5.012971099296683, 1.418610187400649, -0.3915107488807763, 7.4604368854983605, -7.625640914684233, -2.526698544638961, 2.131678214087918, 1.6056020581208479, 4.312588290723033, 5.165540287822624, -1.1807709866831004, -0.8875384233783024, -4.550213750935516, 0.25180827500274194, 0.08579412590414215, -1.0923680166524825, 1.1231516194776487, 1.230764326577022, 1.0265490402607096, 0.88243118620447, -1.1869696767286904, 2.0256487914814194, -2.54211374369444, 3.0357339155455847, 2.084036072491969, -3.1679303658677087, -1.0821927151230604, -0.11789164125526952, -1.2799270958163032, -2.2827110413186062, -2.2841536899053096, -1.303452392537984, 1.480031874336638, -1.271952515196475, 2.762396400811287, 1.4541737830690455, 0.8881638522472954, -2.329522753587696, 0.8355632248699756]",-5.128,-3.268,-5.586666666666666,-4.083333333333333,1.5,o-DCB,CN,25.0,PEDOT:PSS,Ca,4.19,4.06,0.76,9.81,54.4
"[-107423.09370752568, -75573.72491442433, 2691.8991779816492, -4359.288094612307, -3859.7433060644207, -1847.8519273013371, -1889.0743954606046, 1536.351734759291, -2038.0020710130102, -250.9250961308735, -579.2097281665674, -1138.371813353039, 204.28165435409824, 1120.5263493763962, 317.06596906400245, 630.8686331437411, 889.6374051675624, -388.76071594011614, 265.08924938685357, 87.46695323995448, -290.4277077541242, 118.52734543177048, -21.841302941700178, -79.92039500364967, -106.80509476698319, 390.7242110606642, 95.91012287047195, -154.9672961555753, 45.522833100910816, 78.23126669788178, -159.1592313468504, 85.6466254427508, -164.79687745355793, -34.80586067308105, -145.24623919134763, 179.33804085231037, 10.870623860225791, 38.91769152893053, -101.24106298447285, 44.871537325894835, 55.99791494195627, 51.015982579172885, 66.35246456262726, 7.7204639955288314, -18.694005560727533, 38.41402220616827, -17.47776737016899, 36.31767454703578, 21.33878639572856, -58.52589480573931, 9.369963856855833, -16.767002774809704, 9.689020839144938, -5.982688485175302, 4.133014765113181, 36.426301770686116, 7.540154096546431, 27.53704738719575, -17.957480001463566, 16.557684498774563, -18.69000892493894, -7.08616041952439, 14.378467751852185, -12.217751194587123, -2.6161689295191373, -5.837523995624508, -2.1490044295476594, 10.056334922144082, 1.3501069728939399, 0.05224351803807892, -16.535605581159224, -5.6702918026516045, -3.8484012473147304, 4.929540958358878, -6.355948922614054, -3.800236085371594, -2.6256962495340304, 7.507438958084677, -3.157766304370318, -2.518426304965004, -2.749228669282047, -0.6468479501061353, -2.80624798789799, -2.2833956293754163, 0.28996019696587894, 2.3887575586119, -0.7819702132318955, 3.0193525969544197, 0.7428021200144546, 0.8279010023571232, 2.95785631266628, -2.205478006645592, 1.8411136289687953, 0.7345581680427404, 2.439750641051603, 0.36041177710603023, 1.30115670516924, 0.03257631952655515, -0.6483428695408122, -1.6363495221230844, 0.3118005621253772, -0.7354061353540793, 0.3136123038264351, 0.4911308715796139, 0.37365649741267415, -0.5496605495964104, 0.23560728430111055, 1.2528802085125612, -0.9492348233973082, 0.1705445119902258, 0.2171179919947761, 0.08546418885482687, -0.33474926070695243, -0.8540277896909174, -0.2842139993798014, -0.4709718253734998, 0.16880203515812653, 0.4692524371131013, 0.0006185463064909413, -0.18036026895958912, -0.2853763147508488, 0.0471983352172991, -0.3432022814872626, -0.09027095934164464, 0.12916310238986028, -0.2916012655567499, 0.18362146879040253, 0.1110090588083068, -33083.229177061745, -20331.65499619621, -14008.840496774465, 4516.799298702917, -712.2905602369863, -1313.7349048178116, 1524.830969533395, -1892.7186717847926, 110.15775142257309, -246.55819097884213, -2230.677034137667, -212.53436612030953, -331.09791429189795, -629.1630005119952, 731.6897584244996, 1764.741710865801, 370.449812761761, -433.5830604663562, 232.7868433698798, 14.30423087051031, 385.0601151479488, -574.8200042804754, -523.5649412048758, 609.9118587993673, 138.52198331525193, 696.9964427288468, -236.61655860597205, -430.38795514432104, 767.276210782028, 245.04106377372858, -453.482391928626, 52.83748963079364, -262.563012214671, -126.19153212001123, 86.96929079516846, -128.12312735962362, 376.43143490878964, -113.16747654063798, -315.0661088559478, 169.8475268860823, -200.0489944175977, 112.64996420376939, 162.12680010440226, 42.51335097467209, -177.59768664702577, -81.8812536616218, 51.01018012598467, -10.832008410478906, 49.77531371434873, 16.97301376108205, -29.27574519574283, 37.09263238697571, -28.39451050779377, -12.777461417505435, -1.2943476533809388, -18.63011633268244, 43.82116303041699, 0.818057406492116, 14.504865360546937, 3.3604142814899802, -51.725080978083696, 68.00882184632836, 15.72104769301026, -19.55319105416715, -4.671136224706039, -7.940791195685405, -17.9123342791122, 24.38791667040541, 20.37787888990218, -17.709682351807253, 2.8329368343238563, -31.8878539772409, 11.463149273830417, -25.365773931150578, 4.965208686147332, 1.559247303525332, 2.3963674402479054, 15.654044357603137, 8.342113485391494, 0.7942272586495349, 1.3559940034218583, -12.98285186468558, -4.869900285813306, -3.0682584249789784, -12.103412122419694, 12.284058497037002, 16.84247470023419, 4.592143543045868, -5.639215150454423, 8.34653818396622, 5.669164700212644, -3.38234373146776, 7.297541642308877, -2.251835990921176, 4.819996354148746, 9.983352642786667, 1.2968302305502277, 1.0085219068719078, -5.887798342576872, 2.2758511336553973, 2.855459292837711, 6.7688441293200725, -0.5486673115072485, 7.452264060139873, 1.0612618865110104, -2.232951040202547, -3.8177724042547085, -0.7787745402502064, -2.5267202945174922, -0.9550450067257863, 0.8708711134449061, 1.551597516203909, 5.260668782825354, 2.990364527128869, 3.432918704596952, -2.413003185731089, -1.8241642362896897, 0.10396621339998813, -2.776768054130878, 2.4673273089812806, -0.16263406792519586, -2.175785553195978, 5.466045999348054, -5.23752413500012, -0.18235509622426704, 0.7192853522752953, 1.006112750286107, -0.7214824542874778]",-5.128,-3.268,-5.5,-3.8,1.5,o-DCB,DIO,25.0,PEDOT:PSS,Ca,4.7,4.64,0.845,9.67,56.8
"[-105631.73783275932, -74572.73247403272, 4329.753734020427, -2341.4243576849567, -5555.485216633641, -172.87819728700106, -798.6979620852667, 856.8010146047068, -1780.8026309386028, 649.5717848685752, 65.62447326392157, 388.30062073400836, -353.1258883999071, -137.697950651705, 31.52142203119479, -106.39355730444561, 81.98057692092414, -63.14138686604906, 66.8688432765725, -31.850017336689234, -14.562814664564094, -114.9941249091529, 19.27422754978045, 6.86920436049806, -13.362968611123335, -88.88424698589336, -9.680549433746734, -6.256532059762719, -19.287322586292646, 30.85187752382363, -0.060728621664203786, -1.7204165771485123, 18.096287928493183, -5.394264557244732, 40.036620565000476, -33.18107886987201, 2.1644049971745574, -3.5496157331860445, 9.702406188567533, -7.574832588501394, 9.796433451870143, 2.157829321761511, -3.1218789726135014, 6.6756247366353705, -7.1588684345745435, -6.697268175137552, -1.4052090508045652, -1.9646060063565116, -5.4204105421624575, 3.32941670679557, -3.8499636318233144, -4.615352531498566, -0.07975953344401887, 3.391194367932755, -4.106358123047258, 1.501503218822819, 0.9563824343184066, -2.6973013366915453, 0.8798263076499495, -1.2664639901547048, 1.2677471291641744, 0.13775840341868673, -2.0083004655011223, 2.233635675897844, -1.9092080674585787, 1.3281780039048954, 1.7708225501106938, 0.11723884380987926, -0.7217945654510771, 0.020674104910288094, 0.6321921645490995, -0.12750860712933587, -0.7324806057772388, 0.387690081710673, 0.5704773577055064, -0.5561048571084157, 0.13303415142318897, -0.39533728660630274, -0.19314666767595423, -0.17136554860633169, -0.3105600644218782, 0.09227497024608411, 0.3640581811437116, 0.12456153887661969, -0.4900314009409783, -0.2105542507325282, -0.11287961723428896, -0.4896110545300445, -0.2576249538547408, 0.020036158749878297, 0.19004174677945684, 0.43512588848888356, -0.15984926722186188, -0.03699898168409543, -0.16184812575650298, -0.018640178199959223, -0.06970965394751483, 0.02644608400954951, 0.4184249457529603, 0.06710147780425979, -0.1455202420919477, -0.027435290436191195, 0.055771972451445606, -0.09475802435058256, 0.24207868559446766, -0.05282116924259128, -0.1882724966860181, -0.05346045629421603, -0.10831494984240475, -0.0036262226167114164, -0.026380022030597416, 0.020118181288705017, 0.03512820925391846, 0.029024371883522804, -0.050134402663047695, 0.01941571781524054, 0.00820689833365762, 0.059280726425585684, -0.07718365209846922, -0.05673269250273272, 0.03097365628437565, 0.0007247489018915587, 0.008388415516517256, 0.019782146741892603, 0.003491413958400358, 0.005668303566913835, 0.008251200563019978, 0.015433351818131769, -25916.04883369151, -2275.4760869171346, -9194.873789195784, -6708.319207450144, -3366.335045699063, -4180.46998571905, -1860.3438660685563, 860.1783806415149, 2026.7953578977517, 2633.1079370174107, 3466.5744120076038, 981.639372657984, -700.6709721967616, 2013.1532304234993, -117.13540918982015, 77.00474304292767, -280.50139114201426, 1158.1880510301628, 395.01970935965664, -367.82351468260015, 64.85833715462209, 91.10689725962341, -263.3285240897302, -292.3007472965677, 259.48563070034015, -23.913643797019233, -413.2790011762724, -183.8613596308216, -94.60631330645242, -263.96263636876165, -129.546267583344, 196.6033894342787, -143.06204531725461, -185.9617111473099, -53.48534722066596, 80.81387950297896, 37.75447522209312, -5.016710115486674, 103.50288207251721, 56.029790538274725, 104.39634841224587, -68.81873285457402, -17.1348767985894, 42.0627290908259, -16.260879220812424, -71.86793368354225, 55.78568190673844, -5.914308976384309, -3.8299707216112857, 12.381196684184955, 34.901572199490445, 35.80561430450651, 16.77956341029034, -1.5518201841060826, -14.703235251050899, 4.659497633152601, 37.016803594382075, -22.316709157325775, 14.206086582531462, -9.491696762637957, 16.505493474985222, -0.9428072166440042, 12.308247194730301, 46.80139392217395, 11.09488563312037, 9.170249526992981, 12.103835290316239, -12.948716789977109, 9.95247687936878, 8.497884892017554, -1.3230205983570267, -14.316604051425008, 5.382887119474555, 6.285811628715367, -1.5288775874065694, 2.37180855000377, 10.74924746976707, 15.336305602085528, 6.316706564478217, -7.771617681792531, -0.0548001003266778, -7.530550807988083, 2.7658809423291273, 2.1973031173780697, -8.262200521800475, 3.13499510288547, -5.478278025049487, -4.2555486547643895, -2.2070109967416447, -6.820045376815695, 2.6800623513566846, -2.678663921077961, -2.1958097727576895, -3.0879908327669163, -2.9147460105353904, -1.8054559165029214, -4.152690581912634, 0.6257753690354122, 0.5577014933211049, 1.6443596868303967, -0.652042543775492, -2.849183118620477, -3.3226615629757337, -1.467543017391069, -0.21873389928521814, -4.081887124034323, 1.6891420069305532, 0.7095133213700578, 3.1971308034570605, 2.270973160487819, -3.5033443105347293, -0.8315321045560218, 0.9403643062071083, -3.248543833544948, -0.9615816023718646, -2.2636876033580924, -5.762975116336683, -0.029645255375946533, 1.5216950758169663, 0.06641182814953162, 5.283718978988199, -1.5901516937723084, 2.391150022015417, -0.5204135576129647, -0.011876780724466629, 1.7583430049889648, 0.5861176147036264, -0.19938121675059506]",-5.204782608695651,-3.5391891891891896,-5.49,-3.985,0.769,CB,CN,25.0,MoOx,ZnO,4.08,4.08,0.84,9.54,50.9