DA_mordred_pca,HOMO_D_eV,LUMO_D_eV,HOMO_A_eV,LUMO_A_eV,D_A_ratio_m_m,solvent,solvent_additive,annealing_temperature,hole_contact_layer,electron_contact_layer,PCE_percent,calc_PCE_percent,Voc_V,Jsc_mA_cm_pow_neg2,FF_percent
"[40187.926542827976, 54709.7441839478, -31870.138215874307, 5562.721758293645, 488.30502979284574, 109.24191866204364, -2393.0720517002846, 4953.653844318549, 261.7728271238161, 3095.4723488863206, -2760.6238648601156, -1320.1896612369676, 2285.274855901044, 482.12294249200386, 809.2835304467633, -1370.042673178306, 745.285130542547, 1232.297209805796, 598.4418558503368, -156.46134052482296, -903.1687224963596, -83.66383824200797, -463.09983582745485, 69.36514944407213, -215.06973318608806, 179.2503202061299, 520.7655096060068, 158.24183228755516, -268.5386574493319, 156.61599207809928, -115.96325907538932, -226.40199266156532, -33.14353603878308, 242.27189162630054, 55.16698350529589, -354.72926974688545, -101.75748737967172, 23.557983283780175, -29.15963604243221, 102.84564150911517, -177.41254274480337, 108.43985664837595, -47.16985282123483, -84.74024608962179, -210.1149891394816, 16.913959509932567, 5.049058073682005, -37.80840227345244, 25.67121840338652, -52.26554377493798, -65.14424370153493, 83.91420314196836, 5.692893442958763, 17.514413273782466, -10.955153444210339, 28.56881895182955, -82.0229857778132, 41.22873506278316, -8.803665540248744, -49.599705080632106, 11.0979068098001, 4.01243732098456, 30.498939555816463, 1.477287201072997, 32.931701713441484, -1.2086181576489352, 7.009174027771607, 16.561235343327773, -24.765139365191757, -9.844167676277724, -8.201775545700237, 17.237194397741042, 11.472248578174755, -21.616946912201428, -2.1311619029582047, 3.012653836182551, -13.768671194950073, 2.9691173337688266, 2.7019346819087855, 2.6509846210941674, 11.99292671685842, -2.3318537851016643, 9.616014862997368, 25.270235115660462, -3.744526557350298, 10.555684938786499, 12.744298982196147, 11.616123176534899, 1.6711394545174034, -5.785763142358189, 6.097863095218088, 4.472877843760912, 10.938802512712293, 8.852098630534243, -11.417386319194595, 1.5352778499317594, 8.566624530047433, 6.934302933949851, 3.230427216743969, 3.0132483580037235, 4.6673680771147446, 2.06776408436456, -0.5651821361188887, -3.228464879278409, 3.7038609692632587, -4.159511977879639, -0.49840625223418655, 2.190819051476364, 5.549687746856137, -1.4976351670878758, -1.0492634966682886, 1.1008118763285921, 2.0504762385599697, 0.19554408859382022, -0.6338089449772468, -0.1284640161227415, -2.110713887723904, 0.9886092822508807, -0.6618058024895781, -1.6144817735695094, -0.4295879619372336, -0.25949497520356957, 0.1637348025669123, 2.23739166023687, 0.7071337796371182, 0.5162143915958666, -1.0568549265828686, 0.9200427268687079, -47583.02800613079, -22733.11333127273, -26011.902211627494, 19366.447709641485, 10359.145885334736, 244.58447913340885, 2254.523634112581, 7559.391849520014, 1546.6479120877036, -422.60207280780855, 978.2696374239093, -138.06105321222094, -3037.7042756262017, -830.8927972212657, 550.4716986767502, -1141.4365898246965, -634.582349092588, 284.46172918768514, -12.376606801247334, -937.8451918085143, 80.4891915365173, 897.0206316456226, -55.619122978915414, 52.51012813801307, 258.51638085010063, -491.43551508109124, -371.8019657147279, -8.615915385880236, 234.66855443128637, -183.16803474232586, 77.0949507251656, 232.19753488012856, -148.16703186450576, 173.12581210172408, 101.21956341597786, -130.92593778009677, -44.65061466072491, 14.535188571196954, -91.34815053090483, -20.819980337283198, -11.84186599662467, -7.350416120223542, 89.00778848929379, 22.666544274594116, -2.384054832428813, 6.5031618992815154, -4.4071634556155175, 19.895015036303775, -41.85966833312708, 63.13378489142916, -28.175970010856453, 25.10024641586932, -19.036954395717643, 6.603396064037106, -2.7985697694351472, 16.44532145350314, -9.432710419026606, -4.601929186073988, -22.630087927655694, 10.173525433102526, -1.2176607519043863, 3.5979932324758925, 7.326567076181931, -6.220127962924085, 2.176935101517415, -12.738662492324362, 0.27615253283987684, 5.595667340152303, -2.6884851823664926, 5.199634519845018, -0.3209693467598669, -1.6246740018430668, 1.916354277680469, -0.47375942641149393, -2.56366830667689, -4.055276363986579, -6.70548356780559, 2.0205711613269965, -3.926769745341744, -1.3052016694358954, -2.755907249791632, 0.32818662663394527, -0.17121857216179848, -1.3268583657321003, -1.4324042538171113, 1.7405927571766746, 1.2425825463414792, 1.8496214643608333, 3.6460764144424704, -1.140593574815565, 1.275704235940406, 0.714552450785817, 1.5947078002081767, -0.5356823255137684, -0.5283127981950173, -0.01282081208177921, 2.6584302713726373, -0.2529859460454307, 0.6560751463353647, 3.9262440158543868, -1.4822110940468107, -0.3993242106796622, -1.0675927626789878, -0.46192007682680725, -1.6162515361060166, 0.39477250157220123, -1.2143401927400062, -1.064785802234275, 0.03472057454021282, -0.8994674081261067, -0.3869263927291211, -1.3120178280324843, -0.985460738600672, 0.08485463882579403, 0.22874766658920542, 0.17771174279110902, -0.3515016174342911, -0.08848073289834302, 0.07812891352481444, 0.8150017617699254, -1.1298300981502827, 0.42841455770546455, -0.9862907438426101, -0.20340982711949263, 0.5398263549832336, -0.12105252690005308, -0.04190855171512453, 0.5982389156758732]",-5.68,-2.89,-5.673333333333334,-3.908888888888889,1.0,CB,_,25.0,CuSCN,PFN-Br,10.12,10.12,1.08,15.52,60.4
"[-91850.1013944251, -31.94532944595926, -13640.129141491467, 5099.048943614727, 7326.240889669503, 7684.43407108446, 1997.5494770357122, -703.3152267823559, -259.7450865929389, 436.92345434869816, 490.3794333956324, 774.5753002521705, -2022.4679685424287, -1987.4701536078055, 108.76625203341355, 104.60182730990317, -80.8059801199831, 518.8170348412508, 513.1853716948877, 15.26626321363915, 43.50341270921257, 48.27983655028392, -100.29142569674494, 104.9057912250179, 170.11567291119, -24.50881973822078, -109.0522832507805, -274.67003359230495, -26.845011636912957, -64.75688205459811, -109.96502227843183, 117.72488586437522, -74.05234933802795, -19.742306629134646, 8.210886499264518, 58.15026930634001, -2.0910308578646912, 1.6565080023191499, -42.627578711504825, -14.392497199742639, -40.03801206359397, -2.7404110728584747, 5.1152424033258015, 10.93175834662733, 7.17062172142435, -7.336682401094352, 12.335195137325176, 1.743859757755739, -11.045090774637238, -10.383896287752744, -5.08769084339689, -1.678110450983886, 2.874319989313248, 8.705711012017357, 3.459574045624098, 2.1486389571342643, 9.187302519778862, -2.839489944206351, -2.925919531500101, -0.7335914346383561, 2.651432306082293, -5.925503426319116, 3.6301310383623395, -2.688416150576783, -0.39163237962848996, 1.5394059466154877, 2.074358943660581, 2.5781307902480597, -1.110172042208525, 2.0531010681186173, -2.0110712717998815, -0.0013305089881772147, -1.8456419639238901, 1.054484185975348, -1.7743173691334029, 0.3866410347867113, 0.030670132991629018, -0.9639888106917067, -0.8888866294011472, -2.742182332770623, 0.10855259722772992, -0.018251501121850477, 0.7404327978632788, 0.6317846317399689, -0.9425030761764255, 0.20914888242955687, 0.027004723583202883, -0.18326034248701006, -0.007922551392209709, 0.29072379791069425, 0.023583823241565938, 0.14167009797399643, 0.09081391715623832, 0.26569816221827436, -0.19113427062095623, -0.15117296545027425, 0.4906741400137331, -0.11675473747599963, 0.15657728436579532, 0.023369801669616663, 0.22976643765362015, -0.13851454714771427, 0.452387254805809, 0.39827537908958455, -0.08806860875073019, -0.20101392348631597, -0.11813223291226427, 0.3178059037360166, 0.2183440404572612, -0.21518659747810887, 0.05295137879517142, 0.24798228239579956, 0.10020542758738127, 0.28166189335245306, -0.18857723602523713, 0.0641165806306252, -0.24958460306900254, -0.06013028960270761, -0.10211807341153367, 0.10979007872791535, -0.06399760348199623, 0.08022730449348625, -0.16750723788688926, -0.05023146720217753, 0.04339181601633779, -0.03946373517263346, -0.04765661365284746, 0.015093753317343833, -47583.02800613079, -22733.11333127273, -26011.902211627494, 19366.447709641485, 10359.145885334736, 244.58447913340885, 2254.523634112581, 7559.391849520014, 1546.6479120877036, -422.60207280780855, 978.2696374239093, -138.06105321222094, -3037.7042756262017, -830.8927972212657, 550.4716986767502, -1141.4365898246965, -634.582349092588, 284.46172918768514, -12.376606801247334, -937.8451918085143, 80.4891915365173, 897.0206316456226, -55.619122978915414, 52.51012813801307, 258.51638085010063, -491.43551508109124, -371.8019657147279, -8.615915385880236, 234.66855443128637, -183.16803474232586, 77.0949507251656, 232.19753488012856, -148.16703186450576, 173.12581210172408, 101.21956341597786, -130.92593778009677, -44.65061466072491, 14.535188571196954, -91.34815053090483, -20.819980337283198, -11.84186599662467, -7.350416120223542, 89.00778848929379, 22.666544274594116, -2.384054832428813, 6.5031618992815154, -4.4071634556155175, 19.895015036303775, -41.85966833312708, 63.13378489142916, -28.175970010856453, 25.10024641586932, -19.036954395717643, 6.603396064037106, -2.7985697694351472, 16.44532145350314, -9.432710419026606, -4.601929186073988, -22.630087927655694, 10.173525433102526, -1.2176607519043863, 3.5979932324758925, 7.326567076181931, -6.220127962924085, 2.176935101517415, -12.738662492324362, 0.27615253283987684, 5.595667340152303, -2.6884851823664926, 5.199634519845018, -0.3209693467598669, -1.6246740018430668, 1.916354277680469, -0.47375942641149393, -2.56366830667689, -4.055276363986579, -6.70548356780559, 2.0205711613269965, -3.926769745341744, -1.3052016694358954, -2.755907249791632, 0.32818662663394527, -0.17121857216179848, -1.3268583657321003, -1.4324042538171113, 1.7405927571766746, 1.2425825463414792, 1.8496214643608333, 3.6460764144424704, -1.140593574815565, 1.275704235940406, 0.714552450785817, 1.5947078002081767, -0.5356823255137684, -0.5283127981950173, -0.01282081208177921, 2.6584302713726373, -0.2529859460454307, 0.6560751463353647, 3.9262440158543868, -1.4822110940468107, -0.3993242106796622, -1.0675927626789878, -0.46192007682680725, -1.6162515361060166, 0.39477250157220123, -1.2143401927400062, -1.064785802234275, 0.03472057454021282, -0.8994674081261067, -0.3869263927291211, -1.3120178280324843, -0.985460738600672, 0.08485463882579403, 0.22874766658920542, 0.17771174279110902, -0.3515016174342911, -0.08848073289834302, 0.07812891352481444, 0.8150017617699254, -1.1298300981502827, 0.42841455770546455, -0.9862907438426101, -0.20340982711949263, 0.5398263549832336, -0.12105252690005308, -0.04190855171512453, 0.5982389156758732]",-5.43,-3.3200000000000003,-5.673333333333334,-3.908888888888889,0.667,CF,DIO,25.0,MoOx,ZnO,8.88,8.88,0.915,15.84,61.26
"[-91850.1013944251, -31.94532944595926, -13640.129141491467, 5099.048943614727, 7326.240889669503, 7684.43407108446, 1997.5494770357122, -703.3152267823559, -259.7450865929389, 436.92345434869816, 490.3794333956324, 774.5753002521705, -2022.4679685424287, -1987.4701536078055, 108.76625203341355, 104.60182730990317, -80.8059801199831, 518.8170348412508, 513.1853716948877, 15.26626321363915, 43.50341270921257, 48.27983655028392, -100.29142569674494, 104.9057912250179, 170.11567291119, -24.50881973822078, -109.0522832507805, -274.67003359230495, -26.845011636912957, -64.75688205459811, -109.96502227843183, 117.72488586437522, -74.05234933802795, -19.742306629134646, 8.210886499264518, 58.15026930634001, -2.0910308578646912, 1.6565080023191499, -42.627578711504825, -14.392497199742639, -40.03801206359397, -2.7404110728584747, 5.1152424033258015, 10.93175834662733, 7.17062172142435, -7.336682401094352, 12.335195137325176, 1.743859757755739, -11.045090774637238, -10.383896287752744, -5.08769084339689, -1.678110450983886, 2.874319989313248, 8.705711012017357, 3.459574045624098, 2.1486389571342643, 9.187302519778862, -2.839489944206351, -2.925919531500101, -0.7335914346383561, 2.651432306082293, -5.925503426319116, 3.6301310383623395, -2.688416150576783, -0.39163237962848996, 1.5394059466154877, 2.074358943660581, 2.5781307902480597, -1.110172042208525, 2.0531010681186173, -2.0110712717998815, -0.0013305089881772147, -1.8456419639238901, 1.054484185975348, -1.7743173691334029, 0.3866410347867113, 0.030670132991629018, -0.9639888106917067, -0.8888866294011472, -2.742182332770623, 0.10855259722772992, -0.018251501121850477, 0.7404327978632788, 0.6317846317399689, -0.9425030761764255, 0.20914888242955687, 0.027004723583202883, -0.18326034248701006, -0.007922551392209709, 0.29072379791069425, 0.023583823241565938, 0.14167009797399643, 0.09081391715623832, 0.26569816221827436, -0.19113427062095623, -0.15117296545027425, 0.4906741400137331, -0.11675473747599963, 0.15657728436579532, 0.023369801669616663, 0.22976643765362015, -0.13851454714771427, 0.452387254805809, 0.39827537908958455, -0.08806860875073019, -0.20101392348631597, -0.11813223291226427, 0.3178059037360166, 0.2183440404572612, -0.21518659747810887, 0.05295137879517142, 0.24798228239579956, 0.10020542758738127, 0.28166189335245306, -0.18857723602523713, 0.0641165806306252, -0.24958460306900254, -0.06013028960270761, -0.10211807341153367, 0.10979007872791535, -0.06399760348199623, 0.08022730449348625, -0.16750723788688926, -0.05023146720217753, 0.04339181601633779, -0.03946373517263346, -0.04765661365284746, 0.015093753317343833, -46296.85626734579, -18896.16906854107, -28219.730108177922, 18704.263735609136, 13001.962028591084, 1084.207188102303, 1678.8585795745075, 7222.975814996089, 1907.4047924877118, -687.745590076531, 84.45752829230514, -306.7279636102978, -2961.1415887310186, -604.915437730082, 826.726474274713, -2509.066909908506, -884.0911813273872, 346.9686953349277, 160.99877406892944, -1004.5615775238305, 192.5830677119963, 513.579374829028, -96.00059988146725, -193.0170606588334, 259.2903648822666, -552.5659879606044, -250.6211095200784, -12.095515540555962, 367.6032267742707, -97.2170174391263, 170.07983975370644, 187.53754042640293, -111.22860967411538, 72.38499189596217, 115.56938437718335, -60.44509176677352, -161.61156882830645, -39.13780856425386, -116.46186397176541, -1.6942971861128484, -78.99109881125347, 3.7688014162991976, 22.717543432775003, -51.71681236386805, 2.6101348203789776, -24.40146531994752, 11.698376245143859, -5.724946491617857, 117.00827225546233, 69.79424332439433, -43.54000939356574, -22.228655779464518, -81.04123943406893, -44.61259320875525, 9.131479133868353, -0.510739830215627, -36.26431914822421, -60.4622792254821, 31.693667224132724, 28.60050142508713, -14.6665774859925, -25.73043292682381, -5.368971901267891, -17.070980081783084, 14.56409058215953, -5.973097929565844, -13.127093671889874, -12.92961708867849, -5.768278082390041, -4.219040098927614, -12.833096292306859, -6.457611104637862, -8.169687561553594, 1.0923441429271925, 4.3949415788877895, 0.6041007264653402, -4.048503496124624, -14.672528161010662, -4.108768423304905, 6.101480627453178, 3.6665621992772657, -1.822827371958292, 3.441397050435115, -3.9176999996121182, 4.1993953598478235, -0.0897287626848513, -2.070810047207617, -2.927088863719355, -3.706950126592716, -0.7368118071306835, 1.6178651301032687, -3.7070688113169155, 0.5150246934192602, -2.004017363521541, -2.141237093792874, 0.38764342235272586, -3.3275974684948615, -1.3343802354389256, -0.8523043005680826, -0.18821983675817222, 0.28851819256453126, -1.6360278116111644, 0.8661442531070769, 2.0611106237009302, -1.3198767535672555, 1.9722304603786611, 0.9976906582871585, -2.499013097075193, 0.8413217517497973, -0.17104981777257322, -0.588082439211262, 2.7034259831378247, -0.8594731069416177, 0.14092623237956658, -2.981680998807274, 0.6447839565892455, 1.1017575696928574, -0.5893327608832506, -0.5834820453553764, 0.8680078131257583, 1.0123856697749023, 1.3623372919867573, 0.9452272047279422, -2.6272580892674045, -1.320333658847284, 0.16194782137390895, 0.030263123355460664, 0.3432783139800808]",-5.43,-3.3200000000000003,-5.720000000000001,-4.065,0.667,CF,DIO,25.0,MoOx,ZnO,12.1,12.1,0.849,19.33,73.73