DA_mordred_pca,HOMO_D_eV,LUMO_D_eV,HOMO_A_eV,LUMO_A_eV,D_A_ratio_m_m,solvent,solvent_additive,annealing_temperature,hole_contact_layer,electron_contact_layer,PCE_percent,calc_PCE_percent,Voc_V,Jsc_mA_cm_pow_neg2,FF_percent
"[-96218.45766618998, 38190.55941397739, 9341.19863978244, -298.0321681723599, 3837.039845288656, -633.0815150821412, -1318.980794355729, 952.285808193773, 528.6042339012306, -265.75996339509254, 85.60403763240663, 327.51410203292335, 339.9238825739942, -217.3938336123946, 80.63195135367053, -89.32083633853233, 32.19492584684396, -21.519530699055707, -3.6266113552724115, -73.04368468656011, 86.79421267883791, 28.9157151412623, 61.36551771993493, -20.29937758864763, -20.5145225649866, 1.7418865694839667, -22.377181673057002, 12.371971410300219, 34.95291732805864, 10.187903617561325, 15.16604348820858, 8.612060636243209, -1.1743635221400766, 7.0376682218726625, -4.093627003889395, 9.922048209550361, -15.554840299560915, -5.613674452998811, -0.2972665085945745, 4.368352481075529, -3.6043195792310403, 1.354200703685919, 2.8516893216669104, -4.255469010620061, 8.299974464104451, 1.2791418187815111, 1.2654639155740988, -2.171801897186288, 0.7563528622149089, 1.6309678283868045, 0.8461705305940708, 3.200150728577338, 4.514637663770485, 2.047832060332592, 0.988495732690156, 3.0209744065138135, -1.0787642655477623, -0.5848165573459294, 0.7450505682325215, 0.7138952097940852, -0.4513392507860554, 0.44000043161623736, 0.9076636698868725, -0.7553614212014921, -1.1367214236829248, 1.4883333004282742, -0.6534390261587824, -0.2020478861539523, 0.5979438493412772, 0.35044047212350127, 0.5920200016964907, -0.4545510567545348, 1.2436977886366634, 0.06188974879205844, 0.28770923066137755, 0.34025436763747585, 0.054350949740208376, 0.15963437295462057, -0.5109982693033068, 0.3735134387368202, 0.6870145153430531, 0.38216412404326583, -0.20553217795980494, -0.08297866327442271, -0.09481622405384194, -0.0074888306561717854, 0.442508262678758, 0.06098427500299941, -0.4139541096843904, 0.14832844029545988, -0.294554145147611, 0.015892796356977712, 0.1548609075275289, -0.005654655004061704, 0.07842930267586645, -0.20841896255037717, 0.07855635365402769, 0.01820150849557578, 0.012441639298426566, -0.05940224021880214, 0.12084591158474112, 0.026787833651969892, 0.019668535058581682, 0.05537380493890609, -0.03933624965050253, 0.009307974571203914, -0.023474896973407267, 0.020049719383548492, 0.003215210697313786, -0.04194589694978035, 0.04089452902605473, 0.02749361263995076, -0.07262298298187164, 0.015379054954234306, 0.0506532373375812, 0.01506994111025417, -0.02377975685210143, 0.009711782809699865, -0.04845640783987859, 0.03322037544939782, -0.008444174408285043, -0.002255075440015908, 0.022455666638478533, -0.005795103590370054, 0.02421124183525336, 0.01760123567103644, -0.016655303062377946, 0.018813816162650987, 9826.62501852374, 143880.19469238477, -2222.363953223393, -13952.123355584112, -2514.1599147254055, -5427.680970323972, -3049.9215684985247, 2033.9527017127975, 1166.746908214222, 2326.051367950771, 1567.8058456216804, 1271.630775807469, 1630.019974292843, 1163.7748622896074, 932.2534237755607, -172.32528099327646, -356.84439232343567, -724.2527910470671, 1655.7020114749953, 920.707996833319, 542.3551312755126, 470.73583702031215, 716.7468030880427, -514.7999201976737, 113.40647559930335, -141.08934775627688, 64.15696897065197, 400.12362451971603, 369.17247441804375, -31.61623345526624, -61.26379049220764, -62.813709885643675, -151.52150169053823, -147.22601758618566, -35.86293505789092, -89.28263918484573, -58.08689462696884, 187.98518766157184, -200.5585136486939, 13.177508359480953, 143.0049690381489, 241.95095738117107, -58.205770407676084, -47.42461506090237, 41.8711867757649, -147.0176378056209, 52.128702569254045, 105.52895536346693, 20.55683273713626, -62.50620527489778, 61.18194425355229, -26.0362070946789, 54.53455909337055, 5.649377360742335, 20.13164932902282, -7.009553533607516, -52.89502147472686, -24.737115361386827, 39.32715613480843, 4.681455759926337, -11.242185180840622, 31.35828332465004, 28.360378908364936, -14.264991985511159, 13.930157380926431, -21.427012326135063, 16.46548086899783, 9.11661218781402, 18.052708937638567, -5.850765508090063, 0.17038654811969423, -6.081800397906241, -6.298946571688617, -34.34086288532173, 5.332740219866437, -14.381594328186253, -1.4621299150002258, -9.58921818062997, -2.4807384137312454, 7.885761834446086, 3.231084956898213, -2.546411780298442, 2.4355837628104666, -7.751528360989425, -4.857761197830953, 1.6709935782218395, -5.93233751637451, -1.2641236493030306, 7.158492764796286, 0.5906638578631132, 1.2380632085499315, -2.3056662377460952, -2.1342765575176657, -1.1436671415403623, -3.3568187053293883, -4.727339233135702, -1.1549784137093155, -1.2630247627500033, -2.136642549557452, -0.7316441907601074, -0.8770440820201202, -3.502330722848292, 2.6262157061590354, -5.665395174342102, 5.5559209326501104, -0.33872856500103055, -2.985128873961724, -6.185584578283368, 3.0573011557141, -4.655848966766925, -0.6392644071287421, -0.6288911191018798, -2.2979142694951804, 0.3490935196640592, -0.17406189538411354, -0.2896293890602166, 1.0696766765216523, -1.6193781153968274, 3.510578008916717, -0.6941648127294471, 2.1577023444654264, -1.9049249287740704, -4.267492433209865, 1.2356273569660985, -1.0559916720911993, 1.06929750155183, -3.330766162412459, 2.200641066506705]",-5.297714285714285,-3.4170000000000003,-5.58,-4.06,1.0,CF,CN,100.0,PEDOT:PSS,PNDIT-F3N-Br,7.4,7.4,0.94,14.03,56.11
"[-96218.45766618998, 38190.55941397739, 9341.19863978244, -298.0321681723599, 3837.039845288656, -633.0815150821412, -1318.980794355729, 952.285808193773, 528.6042339012306, -265.75996339509254, 85.60403763240663, 327.51410203292335, 339.9238825739942, -217.3938336123946, 80.63195135367053, -89.32083633853233, 32.19492584684396, -21.519530699055707, -3.6266113552724115, -73.04368468656011, 86.79421267883791, 28.9157151412623, 61.36551771993493, -20.29937758864763, -20.5145225649866, 1.7418865694839667, -22.377181673057002, 12.371971410300219, 34.95291732805864, 10.187903617561325, 15.16604348820858, 8.612060636243209, -1.1743635221400766, 7.0376682218726625, -4.093627003889395, 9.922048209550361, -15.554840299560915, -5.613674452998811, -0.2972665085945745, 4.368352481075529, -3.6043195792310403, 1.354200703685919, 2.8516893216669104, -4.255469010620061, 8.299974464104451, 1.2791418187815111, 1.2654639155740988, -2.171801897186288, 0.7563528622149089, 1.6309678283868045, 0.8461705305940708, 3.200150728577338, 4.514637663770485, 2.047832060332592, 0.988495732690156, 3.0209744065138135, -1.0787642655477623, -0.5848165573459294, 0.7450505682325215, 0.7138952097940852, -0.4513392507860554, 0.44000043161623736, 0.9076636698868725, -0.7553614212014921, -1.1367214236829248, 1.4883333004282742, -0.6534390261587824, -0.2020478861539523, 0.5979438493412772, 0.35044047212350127, 0.5920200016964907, -0.4545510567545348, 1.2436977886366634, 0.06188974879205844, 0.28770923066137755, 0.34025436763747585, 0.054350949740208376, 0.15963437295462057, -0.5109982693033068, 0.3735134387368202, 0.6870145153430531, 0.38216412404326583, -0.20553217795980494, -0.08297866327442271, -0.09481622405384194, -0.0074888306561717854, 0.442508262678758, 0.06098427500299941, -0.4139541096843904, 0.14832844029545988, -0.294554145147611, 0.015892796356977712, 0.1548609075275289, -0.005654655004061704, 0.07842930267586645, -0.20841896255037717, 0.07855635365402769, 0.01820150849557578, 0.012441639298426566, -0.05940224021880214, 0.12084591158474112, 0.026787833651969892, 0.019668535058581682, 0.05537380493890609, -0.03933624965050253, 0.009307974571203914, -0.023474896973407267, 0.020049719383548492, 0.003215210697313786, -0.04194589694978035, 0.04089452902605473, 0.02749361263995076, -0.07262298298187164, 0.015379054954234306, 0.0506532373375812, 0.01506994111025417, -0.02377975685210143, 0.009711782809699865, -0.04845640783987859, 0.03322037544939782, -0.008444174408285043, -0.002255075440015908, 0.022455666638478533, -0.005795103590370054, 0.02421124183525336, 0.01760123567103644, -0.016655303062377946, 0.018813816162650987, -22159.01450001637, 50567.19962444543, -18582.902963311917, -2160.4432065216006, 10199.02403124693, -4802.902552831028, -5628.999386248398, -1684.409649444518, 2610.1744123544486, 1704.6498966717963, 495.6328015805393, -2306.9931291325083, -1520.0716276087346, 2935.0689408088924, -1513.4406809790084, -2336.8464983360354, -955.5604004134324, 597.5387777604476, -687.0992576788797, 193.3032924333154, -367.08764862167595, -906.9271131666959, -327.20078555127054, 405.2266788341814, -265.3378870150045, -101.38661590197097, 144.43411908871371, 61.79838027812324, -549.7578825934288, -124.96882539203406, 233.6710588336667, -20.44936172367261, -627.6808663406267, 243.01890541196627, -21.951730190211492, 173.08353792928293, 33.318245669630244, 104.01345145610253, -224.52592307056753, -438.62021216083883, 148.4163948291188, 428.15135143471775, 264.04819661614886, -111.31986645787799, -63.15816368051016, -77.11016833513727, 54.72109310517821, 28.959719666533175, -176.08786164276313, -93.04067250262828, -143.79114554850645, -106.685655081899, 12.473554233985027, -125.95874355014045, 5.081405368465482, 78.78162297361408, 68.93738271180692, 39.333756300515304, 30.483790675718183, -47.009176461114976, -5.480741045302615, -25.664666985552376, -31.182467657759403, 84.55580979037609, -31.392993059216877, 51.38188231170452, -9.723495700177445, 67.73065401815282, -29.26946969014057, 8.904222161900428, 5.0460362581698845, -13.027061017630604, -7.984301149268873, 17.918832881247024, -0.9673542149782115, 31.054480265340473, -5.299058764086961, 13.021433488422561, -7.297851508116764, -4.116218710554698, 6.966030796948686, -41.593905635696046, 8.392242583161735, 5.809321305692109, 12.037088361498704, -8.514443151278932, 14.58135388461299, -21.732500252962005, -7.661312472396583, 9.663832991842652, 7.7261915017760785, 13.843655959147775, 9.598415745722754, 7.081297140913762, 2.829439935565034, 2.312951716552071, -6.847259416649933, -13.11900601201275, -6.511549277399683, -2.035809681725908, -12.067499788787915, 13.636707324526732, 9.169649780725496, -8.003003769788105, 0.7741949780791444, -8.274274069448868, 12.323524162626338, -1.7644720607493074, -4.480729116248977, -8.338028273302648, -0.901009399740289, 2.25627912773518, 3.2921058684267166, 2.271803317809745, -7.0410101400913, 2.7368829887972517, 1.517740417359768, 0.21281338392088678, 9.999813124865696, -1.4219818363737033, 2.6291366833182295, -1.3151955595089486, -5.3072754687498875, -5.270238650195296, -2.61079459792634, -8.61808272380098, -5.734687732725263, -6.111089998507474]",-5.297714285714285,-3.4170000000000003,-5.43,-3.8,0.833,o-DCB,DIO,25.0,MoOx,ZnO,11.32,11.38,0.86,21.34,62.0
"[-96218.45766618998, 38190.55941397739, 9341.19863978244, -298.0321681723599, 3837.039845288656, -633.0815150821412, -1318.980794355729, 952.285808193773, 528.6042339012306, -265.75996339509254, 85.60403763240663, 327.51410203292335, 339.9238825739942, -217.3938336123946, 80.63195135367053, -89.32083633853233, 32.19492584684396, -21.519530699055707, -3.6266113552724115, -73.04368468656011, 86.79421267883791, 28.9157151412623, 61.36551771993493, -20.29937758864763, -20.5145225649866, 1.7418865694839667, -22.377181673057002, 12.371971410300219, 34.95291732805864, 10.187903617561325, 15.16604348820858, 8.612060636243209, -1.1743635221400766, 7.0376682218726625, -4.093627003889395, 9.922048209550361, -15.554840299560915, -5.613674452998811, -0.2972665085945745, 4.368352481075529, -3.6043195792310403, 1.354200703685919, 2.8516893216669104, -4.255469010620061, 8.299974464104451, 1.2791418187815111, 1.2654639155740988, -2.171801897186288, 0.7563528622149089, 1.6309678283868045, 0.8461705305940708, 3.200150728577338, 4.514637663770485, 2.047832060332592, 0.988495732690156, 3.0209744065138135, -1.0787642655477623, -0.5848165573459294, 0.7450505682325215, 0.7138952097940852, -0.4513392507860554, 0.44000043161623736, 0.9076636698868725, -0.7553614212014921, -1.1367214236829248, 1.4883333004282742, -0.6534390261587824, -0.2020478861539523, 0.5979438493412772, 0.35044047212350127, 0.5920200016964907, -0.4545510567545348, 1.2436977886366634, 0.06188974879205844, 0.28770923066137755, 0.34025436763747585, 0.054350949740208376, 0.15963437295462057, -0.5109982693033068, 0.3735134387368202, 0.6870145153430531, 0.38216412404326583, -0.20553217795980494, -0.08297866327442271, -0.09481622405384194, -0.0074888306561717854, 0.442508262678758, 0.06098427500299941, -0.4139541096843904, 0.14832844029545988, -0.294554145147611, 0.015892796356977712, 0.1548609075275289, -0.005654655004061704, 0.07842930267586645, -0.20841896255037717, 0.07855635365402769, 0.01820150849557578, 0.012441639298426566, -0.05940224021880214, 0.12084591158474112, 0.026787833651969892, 0.019668535058581682, 0.05537380493890609, -0.03933624965050253, 0.009307974571203914, -0.023474896973407267, 0.020049719383548492, 0.003215210697313786, -0.04194589694978035, 0.04089452902605473, 0.02749361263995076, -0.07262298298187164, 0.015379054954234306, 0.0506532373375812, 0.01506994111025417, -0.02377975685210143, 0.009711782809699865, -0.04845640783987859, 0.03322037544939782, -0.008444174408285043, -0.002255075440015908, 0.022455666638478533, -0.005795103590370054, 0.02421124183525336, 0.01760123567103644, -0.016655303062377946, 0.018813816162650987, -19549.451538161302, 66032.09932880053, -17264.37202336787, -1975.1551827333915, 10353.925513092367, -5469.864478210242, -4726.523236632318, -1143.232866601632, 2623.5375533927163, 547.7728956360756, 551.6517420533537, -2917.1558129040623, -817.4279683064997, 2631.490959357983, -1621.209501025949, -3466.923762047005, -9.3297220970804, -26.005892835445138, -1334.515144085532, 1527.1102560437278, -1092.8994423528159, -370.11535371689456, 164.69790231713532, 614.862163225921, 864.8102287632321, -76.43187967352173, -27.333751234855526, 196.08672414499182, -188.93128246531478, -46.41502081436698, -125.53798162948937, -247.56538658926257, -473.30034559733787, 538.6641262778487, -315.84383637224005, -5.384291169569991, -100.99057507963283, -130.03665743900092, -100.93180470725508, -438.06998125332075, -122.71166133095849, 412.1778331484061, 229.264639248523, -299.08027397293404, -24.124838366534476, -76.99743778259358, 98.81922224136531, -37.101024533504415, -256.7726523110498, -140.99954351780747, -38.646091955667316, -191.65183713159107, 60.559890145449685, -52.75072288666257, 142.10496107396824, 101.62444578059305, 0.3026690830255774, 100.14367399436256, 129.2619635555603, 55.73667568458495, 1.3569482266604211, -7.441901634650101, -68.21130720993743, 61.31150533769653, -40.50789203671562, 17.94821788966324, 57.94915492768235, 33.45308902760043, -52.32267193590963, -52.955095979561996, -9.909389090652304, 7.17853718595986, -28.999153134209195, -24.095900768518778, -18.51717909060875, -3.240518878995644, -17.494305641403177, -21.959879736670015, -5.313043061601704, -7.274900367183832, -16.508902856115924, -10.876598945580483, 2.327998775449405, 4.6051609171715455, -0.24059910832129106, 5.647950246316746, -8.219363659576619, 2.0612293831910122, -4.726858785072194, -12.36760260908539, -13.13235002765255, -11.997187011904941, 12.884694486996423, 3.140487667797018, -12.63067169379542, 4.134582960178854, 12.931228982651177, 16.70612779133704, 5.698309233743021, 5.1928518988117816, 4.249111977144729, 6.546638912370817, 3.1487755451927777, 11.019355697324627, 3.9319315590520176, -4.566380204361419, -1.0193964692916389, 1.5274218374016115, -7.250576540745815, -1.2038858405217212, 2.6181599910649105, -13.292558267525202, -1.7156159455336137, -5.708386262649974, -1.6297962620322455, -4.322994581592052, 0.8873948920348056, 5.513467681499817, -0.6437812455926384, -3.3184062278833366, 5.280074919406479, -4.552550224427753, 5.306638914709316, -3.4265634454248293, 1.1844342495762614, 2.947901397656283, 5.469258790357344, 3.8738371549526924]",-5.297714285714285,-3.4170000000000003,-5.39,-3.77,2.0,o-DCB,_,25.0,MoOx,ZnO,2.18,2.19,0.85,5.26,48.9