DA_mordred_pca,HOMO_D_eV,LUMO_D_eV,HOMO_A_eV,LUMO_A_eV,D_A_ratio_m_m,solvent,solvent_additive,annealing_temperature,hole_contact_layer,electron_contact_layer,PCE_percent,calc_PCE_percent,Voc_V,Jsc_mA_cm_pow_neg2,FF_percent
"[85968.36666107165, 248044.95962423465, -89.97813201429017, 51901.68707780115, -24977.681065851146, -18362.44943778894, 14701.346590976827, -4232.558665592151, -6049.610154260994, -565.6021141243418, 2791.0784154585053, -186.50225965296522, 3712.6410366227824, -2198.089100389103, 2918.5507922689576, -902.6112997838236, 247.37468404977062, 633.2379155782401, 1516.8758513257176, -60.566086377431475, -311.9361215755476, -1149.4773784777321, 592.458166336196, -399.0412109507978, 179.98099873118485, 1019.6931248600349, -256.7138530195748, -18.81036005592091, 340.0727683088835, 35.7432234743593, -129.74212343707995, 508.3208299549291, -190.44233628795655, 307.4252888186692, 123.96127284177874, -160.87069875780162, 127.71163067396964, -31.076619467310366, 111.23496826641018, -50.54965992430516, -6.795733729782114, -80.55061037929386, -5.186911516948157, -2.6719919832551113, -36.14507922750522, 40.397238926416776, -66.33620791061162, 24.645174358316012, 50.90582588208298, 9.662621188437925, -31.332644165299598, -16.66426179440765, 12.456498504639313, 54.745717541207455, 52.25138789643421, -24.489669855975194, 23.42665484157405, -10.529490274465331, -9.661877059780181, 39.37303963143586, 25.559175472511654, 14.826416685797653, 24.34679377216503, 23.612610999644232, -8.627390128960911, 2.689975271265382, -0.5761759037707179, -12.862691780586545, 10.358692344167025, 6.75125163528638, -1.7425565915104642, 0.1336020677937313, -0.7472341236737847, -1.3938207647167644, -1.2388737135350425, 3.607245420401341, -5.380576834250746, -0.18821864064516092, -0.8953986289432105, 3.164873086434909, -0.0067452541629791085, 5.96993132171221, 0.6116965629981337, -3.9857478694892308, -2.4307338038225907, -7.888120130718221, -6.765228418559989, -0.1066847096959691, 1.7236470587311956, -1.1942784483939022, -5.723341750095415, -4.894111686785379, -0.6350037959783776, -1.507094462476486, -1.9155965520977105, 4.339170351332541, 2.512274854413672, 0.9456173079191785, 3.2151101449326234, -2.855527691248028, 1.720172364611983, -2.8257832817077553, 3.5256079792723867, 0.30408818042488406, 1.5964675405470423, 1.15046948019031, 0.7181489972284538, 1.725188565317513, 3.4888318717774354, -1.088355383483261, -0.4938476037991393, -1.9928654191200224, 0.144538897923443, 2.48285990247291, -4.267395295270774, -1.1308137054727467, 1.1198123707191172, -2.0940862632701567, -1.8786053774990137, -1.1935662364518755, -0.7172999105343223, -0.9733202588782319, -0.214619874570964, -0.32887102280523095, 1.7022028476953892, -1.6120721773390585, 1.6388905765947044, 0.5795272525852511, -35133.7948384405, -8229.633002095004, -12056.006677875394, 2789.4971387186242, -6137.391894299175, 347.2184125819449, 313.56897363838834, -763.0529003245208, -753.2713027045285, -463.7277561870353, 442.3965848250751, 144.76451622384843, -82.11980750356622, -241.51593372271438, -166.11661214239564, 161.0117266220481, 156.82867720048182, 45.04865333330787, -64.48252064437057, -23.748315205729725, 175.35196382208807, 75.91403661606171, -286.96291437231935, 32.43950758749915, 86.82629792655737, 17.332913738685377, -52.109964316334626, 147.96654517479746, -66.74616426635947, -30.131339361474026, -64.6842293414586, -20.401781789495175, -60.814467118058936, -33.126806506498966, -10.042152655421425, -51.312256336249625, 3.144366245462294, -3.71627624153237, 36.40376072528973, 0.4548085410526568, 8.77647477218483, -28.125389876423775, 2.49569238193056, -12.913454340121639, 4.879924205036842, -2.3377624767900205, -6.672954601090133, 6.202739337502919, -10.893634984359561, 12.032465269856662, -12.063043989303566, -0.34303639091355365, 5.016332629152714, 0.12086901313429266, -9.726503251923347, 6.137316418082435, -7.076062334661124, 7.3653218625323404, 3.5070409455817924, 2.301233891752652, 4.71929931757742, -1.926768238609477, -5.728496834707801, 0.05692591901005528, -4.227503980921206, 0.19035190488374848, -0.8161738905036682, -0.4714746073762517, 0.016165936440852846, 1.5320458160517845, -3.625921731256579, -1.3255082942715024, 1.0395488339674301, -2.629665545987187, 0.2524077098567754, -0.25955818195747327, -0.9738252465763915, -0.4436497764515863, 0.3498051835956417, -0.5126149363315342, -1.3513245580317377, 0.2982577901396226, 2.0905817811936993, -1.423686297008441, -0.5684747340003078, 0.06286388557579237, 1.556243536792186, 0.47664310848808533, 1.3381005503037402, 1.3274012761810585, -0.18103683328045683, 0.13158711423599634, -0.35216959119522606, 0.24205021276454275, -0.19716096928100413, 0.3411096425350699, 0.8983261097286253, -0.17492589746772325, -0.26859509238574053, -0.13780411398829884, 0.2481245213135157, -0.23952231622609954, -0.5478870274515413, 0.5484971724321479, 0.500298126046161, -0.06133469645540579, -0.3248140481935957, 0.313231347131103, 0.63465776568537, 0.5975958356568718, -0.21144062004099506, -0.6749983329678217, -0.32992632468938865, 0.3033181272449559, -0.12238950451054809, 0.06097724241096092, 0.2639722379565246, -0.2236154184593273, 0.06848499166746613, -0.30866773947200965, -0.13429432396519503, -0.2605157287139417, 0.0014308004863301527, 0.11389554910299449, -0.08035043575031331, -0.3428563737769905, -0.05785525732550667, -0.006029155567380151]",-5.31,-3.46,-5.574146341463415,-3.915,1.25,CB,DIO,25.0,MoOx,ZnO,11.47,11.47,0.92,17.86,69.8
"[37796.28974314578, 19476.905882814997, -3953.078246456792, 10139.34795785471, -10886.670587760169, 4330.386392285795, 2224.790256498019, -2388.304267718221, 1174.1162854804106, 4555.62955493409, -5273.947171655351, 1000.880962338236, 3295.359710457868, -142.81539510328844, 103.82869037693843, -422.82046014559074, -326.87319206833155, 683.8974361845494, 187.81438969117076, -511.3085816095556, 490.13773152257016, -408.8197829272231, 48.510383518572894, -717.1235101422877, 312.86766760720946, 30.66947789056428, 133.30414319479124, -606.325854857525, 315.24121569900024, 227.39438738529378, -101.05698492977118, 242.49673306617328, 93.91488044188347, 186.34114606245973, -297.27002078124474, -316.2711439696592, 163.997275061545, -30.28535167948887, -24.363259272918363, 106.65362719705351, -64.6836304154241, 80.56481263951845, -19.766387853953532, -46.213229965837854, -202.02106337711743, 98.59987923998158, 1.3618117574769002, -7.986215818066945, 22.494244564906083, -74.37755933491289, 35.93881315418974, 32.68496043818705, 24.698517179990933, -10.975512782429888, -12.341058744264501, -37.43720196776542, -30.82318557493585, 44.291032658650735, 1.3011955449186843, -10.920987368835853, -18.584594676688255, 33.955927080607566, -12.851144044993703, 21.87353521625733, -11.145286099918088, -25.992179170753975, -0.1318234817887003, 5.4333122105601355, 7.613481551763826, 9.910927777664385, 6.329044736217252, 1.7717860636217893, -1.9275149962343328, 7.035207272916033, -14.707455217520874, 14.581803406783912, 12.64177924301464, -7.991717479528738, -10.206387612306546, 5.992457993159945, 15.640065976304825, 10.42411347946826, -4.452383173181403, 3.756101928511719, -0.016237928724230244, -9.548583828264967, -3.3070806912394275, 3.7128657627367048, -12.64160826898787, 8.810977046537943, -3.49447996569306, -6.711008248123889, -8.420186778262003, -0.8384014529306869, -2.788395434494632, 1.9518472120515789, -1.0383576800750625, -9.322604570202643, -0.990301139092594, 1.319688699186405, -0.71330713768414, -4.52364692970449, 4.534001597290876, 4.264507057896314, 1.6494849560608422, 0.7785525555307906, -0.46650850943776156, 1.2878375281488772, -0.9187567125271627, -0.2755144271324248, -0.7049444378717489, -0.16497846308575248, -2.159088957644797, 0.8421232114618107, 3.2664252971821526, 1.2693359376778908, -0.20938266252019577, 2.999512140747253, 1.004439975990767, 0.38387196378264044, 2.0927459325893034, -0.5267941932436191, -1.0551681410928708, 0.7635207369076902, -1.3054183045535268, -0.7253283012664582, 0.4378023663776247, -0.1204885621646703, -35133.7948384405, -8229.633002095004, -12056.006677875394, 2789.4971387186242, -6137.391894299175, 347.2184125819449, 313.56897363838834, -763.0529003245208, -753.2713027045285, -463.7277561870353, 442.3965848250751, 144.76451622384843, -82.11980750356622, -241.51593372271438, -166.11661214239564, 161.0117266220481, 156.82867720048182, 45.04865333330787, -64.48252064437057, -23.748315205729725, 175.35196382208807, 75.91403661606171, -286.96291437231935, 32.43950758749915, 86.82629792655737, 17.332913738685377, -52.109964316334626, 147.96654517479746, -66.74616426635947, -30.131339361474026, -64.6842293414586, -20.401781789495175, -60.814467118058936, -33.126806506498966, -10.042152655421425, -51.312256336249625, 3.144366245462294, -3.71627624153237, 36.40376072528973, 0.4548085410526568, 8.77647477218483, -28.125389876423775, 2.49569238193056, -12.913454340121639, 4.879924205036842, -2.3377624767900205, -6.672954601090133, 6.202739337502919, -10.893634984359561, 12.032465269856662, -12.063043989303566, -0.34303639091355365, 5.016332629152714, 0.12086901313429266, -9.726503251923347, 6.137316418082435, -7.076062334661124, 7.3653218625323404, 3.5070409455817924, 2.301233891752652, 4.71929931757742, -1.926768238609477, -5.728496834707801, 0.05692591901005528, -4.227503980921206, 0.19035190488374848, -0.8161738905036682, -0.4714746073762517, 0.016165936440852846, 1.5320458160517845, -3.625921731256579, -1.3255082942715024, 1.0395488339674301, -2.629665545987187, 0.2524077098567754, -0.25955818195747327, -0.9738252465763915, -0.4436497764515863, 0.3498051835956417, -0.5126149363315342, -1.3513245580317377, 0.2982577901396226, 2.0905817811936993, -1.423686297008441, -0.5684747340003078, 0.06286388557579237, 1.556243536792186, 0.47664310848808533, 1.3381005503037402, 1.3274012761810585, -0.18103683328045683, 0.13158711423599634, -0.35216959119522606, 0.24205021276454275, -0.19716096928100413, 0.3411096425350699, 0.8983261097286253, -0.17492589746772325, -0.26859509238574053, -0.13780411398829884, 0.2481245213135157, -0.23952231622609954, -0.5478870274515413, 0.5484971724321479, 0.500298126046161, -0.06133469645540579, -0.3248140481935957, 0.313231347131103, 0.63465776568537, 0.5975958356568718, -0.21144062004099506, -0.6749983329678217, -0.32992632468938865, 0.3033181272449559, -0.12238950451054809, 0.06097724241096092, 0.2639722379565246, -0.2236154184593273, 0.06848499166746613, -0.30866773947200965, -0.13429432396519503, -0.2605157287139417, 0.0014308004863301527, 0.11389554910299449, -0.08035043575031331, -0.3428563737769905, -0.05785525732550667, -0.006029155567380151]",-5.39,-2.8,-5.574146341463415,-3.915,1.0,o-xylene,_,25.0,PEDOT:PSS,MoOx,12.8,12.79,1.1,17.78,65.4
"[3257.714602417087, 18819.880399588237, -9643.244508744192, 6573.848187283609, -5275.311935627372, 2540.7921128155413, -720.4557485940188, -1005.8256756369198, 1716.620575203744, 3732.799482129511, -4473.087573017766, -1198.920385338989, 2385.485928014807, -47.045540108088744, 1064.9087886518407, 3.6971138511940183, -176.61888913846929, 489.9848182836852, -378.1163535495268, -953.7025565323294, -605.1103254688547, 156.5048815651454, -96.48498752267324, 392.0100187665478, 6.4212403441309505, -63.35256620231911, 301.63015018632353, -200.01080073986031, -178.87913545892343, 67.45142471587053, 2.3290332006550543, 20.000165189395, -27.84407583281461, -201.1786981996765, -50.9130896813906, -153.77463514634243, -29.93606999613688, 30.421678405025048, -115.58854770050765, 113.05923019727874, -109.97782617665554, 13.286637779910947, -73.01458252229355, -10.834885558219895, -97.41399441758159, 28.61495908939704, -12.248350323738762, -42.55398234249381, -9.231699438528423, -49.07701212122511, -32.70462713628643, 86.13519892533279, -9.166347644566336, -14.850094560325473, -63.81096876527957, -3.59022767642443, -54.4772494932569, 5.216460746561102, 4.464293638105097, -29.754158945034717, -24.315966568891053, -2.399588299331562, -4.42206038461795, 3.221204045754135, -5.614164256223095, -25.60361013882536, 13.197083205444947, 4.983499724051498, -18.704405929465203, 14.531910954827387, -2.678611833697188, 12.367369153817872, -6.315158753170989, 6.754264151962648, -17.436941558666575, 9.85292469448995, 15.62824846884289, -0.556829652067087, -6.2723662987778495, -1.0854317640207043, 8.608719095217467, 5.084626767126402, -14.527663882082972, 2.883871160429777, -7.558064894647753, -2.40289091070845, 7.577837269626206, 5.967544234061563, -9.994993697825748, 16.596664183385887, 5.507564145453983, 4.8773442507666225, -10.14307083410224, -1.5602565524698373, -0.053472054126327606, 0.5903808302143112, 0.5926843159759159, 0.9332908250569965, 1.595436797068448, 4.500928551580374, 0.5515184307923526, -0.552241303278945, 0.7019619006685485, 3.665726966915811, -4.660721327777901, 0.05548186769333263, 1.598725740298415, -2.2793539572073813, -6.893386112095065, 1.0519185919749, -0.13764540995832775, -0.6396128069067046, -0.86312686365256, 0.958409941573418, 0.1487764307051549, 0.7796367923770903, 2.2958954962361178, -1.8234411135637085, -1.548786734045871, 0.628402077519767, 0.5284596403176396, 2.4145585400601046, 0.33392546754788444, -1.7764298292066822, 1.8487503317878193, -1.0580626004554343, 1.0224676432370359, -1.6970354749274996, -35133.7948384405, -8229.633002095004, -12056.006677875394, 2789.4971387186242, -6137.391894299175, 347.2184125819449, 313.56897363838834, -763.0529003245208, -753.2713027045285, -463.7277561870353, 442.3965848250751, 144.76451622384843, -82.11980750356622, -241.51593372271438, -166.11661214239564, 161.0117266220481, 156.82867720048182, 45.04865333330787, -64.48252064437057, -23.748315205729725, 175.35196382208807, 75.91403661606171, -286.96291437231935, 32.43950758749915, 86.82629792655737, 17.332913738685377, -52.109964316334626, 147.96654517479746, -66.74616426635947, -30.131339361474026, -64.6842293414586, -20.401781789495175, -60.814467118058936, -33.126806506498966, -10.042152655421425, -51.312256336249625, 3.144366245462294, -3.71627624153237, 36.40376072528973, 0.4548085410526568, 8.77647477218483, -28.125389876423775, 2.49569238193056, -12.913454340121639, 4.879924205036842, -2.3377624767900205, -6.672954601090133, 6.202739337502919, -10.893634984359561, 12.032465269856662, -12.063043989303566, -0.34303639091355365, 5.016332629152714, 0.12086901313429266, -9.726503251923347, 6.137316418082435, -7.076062334661124, 7.3653218625323404, 3.5070409455817924, 2.301233891752652, 4.71929931757742, -1.926768238609477, -5.728496834707801, 0.05692591901005528, -4.227503980921206, 0.19035190488374848, -0.8161738905036682, -0.4714746073762517, 0.016165936440852846, 1.5320458160517845, -3.625921731256579, -1.3255082942715024, 1.0395488339674301, -2.629665545987187, 0.2524077098567754, -0.25955818195747327, -0.9738252465763915, -0.4436497764515863, 0.3498051835956417, -0.5126149363315342, -1.3513245580317377, 0.2982577901396226, 2.0905817811936993, -1.423686297008441, -0.5684747340003078, 0.06286388557579237, 1.556243536792186, 0.47664310848808533, 1.3381005503037402, 1.3274012761810585, -0.18103683328045683, 0.13158711423599634, -0.35216959119522606, 0.24205021276454275, -0.19716096928100413, 0.3411096425350699, 0.8983261097286253, -0.17492589746772325, -0.26859509238574053, -0.13780411398829884, 0.2481245213135157, -0.23952231622609954, -0.5478870274515413, 0.5484971724321479, 0.500298126046161, -0.06133469645540579, -0.3248140481935957, 0.313231347131103, 0.63465776568537, 0.5975958356568718, -0.21144062004099506, -0.6749983329678217, -0.32992632468938865, 0.3033181272449559, -0.12238950451054809, 0.06097724241096092, 0.2639722379565246, -0.2236154184593273, 0.06848499166746613, -0.30866773947200965, -0.13429432396519503, -0.2605157287139417, 0.0014308004863301527, 0.11389554910299449, -0.08035043575031331, -0.3428563737769905, -0.05785525732550667, -0.006029155567380151]",-5.35,-2.78,-5.574146341463415,-3.915,1.0,o-xylene,_,25.0,PEDOT:PSS,MoOx,9.43,9.43,1.02,15.91,58.1