DA_mordred_pca,HOMO_D_eV,LUMO_D_eV,HOMO_A_eV,LUMO_A_eV,D_A_ratio_m_m,solvent,solvent_additive,annealing_temperature,hole_contact_layer,electron_contact_layer,PCE_percent,calc_PCE_percent,Voc_V,Jsc_mA_cm_pow_neg2,FF_percent
"[-113112.0221877825, -128040.17814553897, -10298.628999373548, 3432.733628547574, 8973.419698991387, -3439.282848851566, 3781.954798850272, -829.6176407827634, 1085.3982123472952, 550.4456547111608, -435.8864607518108, -710.2243801656157, 1326.1626490602139, 8.665554309145136, -418.74269954022566, 187.45956881819745, 121.28409340748124, -4.298184849417794, 8.490690881116162, 52.913455571291934, 87.8658439058351, 43.51987937221628, 44.34062644746041, -49.48592701393579, 33.90433203557939, 4.676946288832141, -8.072828067571379, 10.567251849407967, -111.51899092106515, 28.525996512887673, 100.06773607887192, 12.062822784303606, -5.263110840715456, 7.512175011148145, 1.3785293027879106, 16.635643035520957, 4.039764278740535, -24.845372606161163, -22.45639579757742, 5.826741130519196, -0.7521496402381729, 12.53019855668316, -4.796028348520849, -8.538919188446641, 0.6386535221417375, 0.28586521885279126, 3.6235228381428186, -2.3848029517721017, -2.8923507347754054, 4.7855121583618825, 4.964071798130007, -3.784341510985911, 2.078751210970445, -0.29178313050513793, -1.7735955457794503, -3.129511596315538, 1.0268372421283374, -6.771806284949676, -0.36009360913607225, -0.2885819863777215, 0.7901843974181446, -4.113908987537911, -1.4204402500640185, -1.319936024894119, 0.9505850971635255, 0.3919987624149357, -1.1826527991339901, 0.25278811590131767, -0.10244841765984347, -0.06963895121972996, -0.3177515931384107, -0.252237779743524, 0.3418882282524356, -0.025334246562977114, 0.6085323469659869, -0.08140436503745718, -0.052060392777136144, -0.37716527456960947, 0.622708357653387, 0.7512702289248097, -0.18664277121496298, -0.4686124080250025, 0.11033475969473727, -0.17570642990008523, -0.01191175014561452, -0.5637582343619982, -0.15994847323332984, -0.4211786166219582, -0.07485781839410688, -0.23597185487598793, -0.10873839156025156, -0.12014790117991936, 0.17783780040360142, -0.16002430739202889, -0.04013287387633824, -0.3283820317790074, -0.14723447861628003, -0.013208994816466202, 0.10783506653254449, 0.02054895260968026, 0.0038103610396120757, -0.03785315965532643, -0.013199411282162288, -0.07276953001481701, 0.05509625405750462, -0.04625759139159413, 0.04027683863420606, -0.0025516021335834083, 0.03001469427361414, 0.09321320428330893, 0.06018147875735025, -0.03890482007976459, 0.055154607055641236, 0.0315222130303745, -0.0697597739780349, -0.024930229612809995, -0.01225032381139357, 0.015968003371716222, 0.02773925890596729, 0.0066110138903283655, -0.025875302652229593, 0.0026188898131849214, -0.006174358951955394, 0.01351968740192433, -0.0167749891402309, 0.027379330332195195, -0.004039592793215974, -0.00318420795111507, 385353.6992481494, 37150.0409835291, -11258.93923075814, -812.7658224082625, 15087.510944670357, -9147.52601635547, 7443.900478655229, -4667.639406843189, -2498.253771992522, -962.099292013796, 4055.0001294993563, -731.1342962191748, -2302.358797883906, 967.3889299074374, -1307.009293467696, 3095.8108479616394, -1220.9183110830709, 1802.6159746032254, -2154.9470365676743, 21.041895299986095, 828.7108369237733, 749.9204953583635, 2073.078701910128, -140.37567378791914, 369.9363506538757, -639.5294268106331, 224.83792732141075, -357.4319999132335, 338.8607852831324, 250.11921167368735, 273.0816182634463, -824.4305579300187, 46.34030379776567, 200.35671392010534, -22.848811057047982, -204.91812890520563, -178.10058972574416, -58.65495483933711, -60.18249730440259, 110.99955265705555, -115.40308305242796, -137.38289148920163, 110.00552643978449, 87.75983626256212, 150.05374828349971, 99.68249203585853, 201.6359560593941, -170.60277080071296, 103.06065963073605, 91.22990324321938, 55.671060971469444, -115.49277217039918, 34.22173922903576, -61.30482118343433, -5.116704639342288, -13.489808970791842, -41.38100368343612, -7.050676710909158, 42.761392366802454, 117.9642402058274, -54.70332519081002, 44.080916314319616, 34.17725694279321, -35.59219171096069, -81.6869192317023, 5.675053979545057, 2.3588426829325826, 41.41655181258433, 50.197429920475514, -23.146132416805855, -39.70180773052595, 53.66441150121066, 9.925247261364916, 24.07581253231217, -2.9131290272351436, -14.330004819707796, 15.569507690364116, 28.823004721225473, 22.05185326449589, 19.71237765975299, -8.569551298422574, -8.042237808039928, 4.011918951052131, 33.66441649004976, -34.431705112641275, 7.067102116401003, 3.5696744468119377, 11.894773266800357, -7.576226901957693, -5.359768055468841, 16.223940332862625, -2.4748970178224425, 4.087928389437451, 13.53539365909873, 9.739984604874891, -4.756102861815705, -7.4261140085741175, -17.59414324299906, -8.305584997844502, 11.164991724599332, 1.6378918673638605, -6.048986768453508, 0.5824761311523332, 7.984679273596894, 1.0966661016857557, -3.9861093018110445, 5.292148125110156, 8.716424653962783, -8.310469037974372, 7.69398727566319, 0.58874204070829, 0.5655423192441802, -1.30007367563789, -4.2246268443266715, 6.775926475501679, 7.481318671130637, -3.0776281659039313, -4.389760066430618, 2.1717015518984226, -1.1588502197216144, -1.4808814669354877, -1.310038666386907, 1.3832203634511266, -0.5911045367585324, -2.263323430729983, -4.430128571668719, -0.8260307080718832, -0.7829769120073422]",-5.057777777777777,-2.989444444444445,-5.32,-3.4,1.25,CF,_,130.0,PEDOT:PSS,Ca,6.26,6.28,0.927,10.93,62.0
"[-96218.45766618998, 38190.55941397739, 9341.19863978244, -298.0321681723599, 3837.039845288656, -633.0815150821412, -1318.980794355729, 952.285808193773, 528.6042339012306, -265.75996339509254, 85.60403763240663, 327.51410203292335, 339.9238825739942, -217.3938336123946, 80.63195135367053, -89.32083633853233, 32.19492584684396, -21.519530699055707, -3.6266113552724115, -73.04368468656011, 86.79421267883791, 28.9157151412623, 61.36551771993493, -20.29937758864763, -20.5145225649866, 1.7418865694839667, -22.377181673057002, 12.371971410300219, 34.95291732805864, 10.187903617561325, 15.16604348820858, 8.612060636243209, -1.1743635221400766, 7.0376682218726625, -4.093627003889395, 9.922048209550361, -15.554840299560915, -5.613674452998811, -0.2972665085945745, 4.368352481075529, -3.6043195792310403, 1.354200703685919, 2.8516893216669104, -4.255469010620061, 8.299974464104451, 1.2791418187815111, 1.2654639155740988, -2.171801897186288, 0.7563528622149089, 1.6309678283868045, 0.8461705305940708, 3.200150728577338, 4.514637663770485, 2.047832060332592, 0.988495732690156, 3.0209744065138135, -1.0787642655477623, -0.5848165573459294, 0.7450505682325215, 0.7138952097940852, -0.4513392507860554, 0.44000043161623736, 0.9076636698868725, -0.7553614212014921, -1.1367214236829248, 1.4883333004282742, -0.6534390261587824, -0.2020478861539523, 0.5979438493412772, 0.35044047212350127, 0.5920200016964907, -0.4545510567545348, 1.2436977886366634, 0.06188974879205844, 0.28770923066137755, 0.34025436763747585, 0.054350949740208376, 0.15963437295462057, -0.5109982693033068, 0.3735134387368202, 0.6870145153430531, 0.38216412404326583, -0.20553217795980494, -0.08297866327442271, -0.09481622405384194, -0.0074888306561717854, 0.442508262678758, 0.06098427500299941, -0.4139541096843904, 0.14832844029545988, -0.294554145147611, 0.015892796356977712, 0.1548609075275289, -0.005654655004061704, 0.07842930267586645, -0.20841896255037717, 0.07855635365402769, 0.01820150849557578, 0.012441639298426566, -0.05940224021880214, 0.12084591158474112, 0.026787833651969892, 0.019668535058581682, 0.05537380493890609, -0.03933624965050253, 0.009307974571203914, -0.023474896973407267, 0.020049719383548492, 0.003215210697313786, -0.04194589694978035, 0.04089452902605473, 0.02749361263995076, -0.07262298298187164, 0.015379054954234306, 0.0506532373375812, 0.01506994111025417, -0.02377975685210143, 0.009711782809699865, -0.04845640783987859, 0.03322037544939782, -0.008444174408285043, -0.002255075440015908, 0.022455666638478533, -0.005795103590370054, 0.02421124183525336, 0.01760123567103644, -0.016655303062377946, 0.018813816162650987, -30024.06098275939, 9488.243482315993, -12581.573815118929, 1799.7094960297218, -4862.873898443886, 1695.8450092766982, -985.0121733314897, -492.79685641466125, -542.9270720062609, 466.70380580055354, 498.5212305305673, 23.865668526552156, 1050.817396712644, -79.88383537531334, 1240.4274334023744, 254.10806664929063, -1505.6373824652535, -46.42487382340319, 473.8249189411797, -524.3035791255775, 39.991165280075684, -193.4230514643416, 658.2696842118437, 342.4207115758272, -976.5178571757182, 589.1744107801906, -167.65746480061978, -166.54164793323923, -232.32178821455835, 154.17926737713702, 304.80748067763403, -53.25414623840049, 85.90798228039277, -97.92730242436875, 79.21223830589665, -32.92844992807115, 67.68188362279534, -15.53822562014234, -75.42912691528477, 63.6303293575221, 124.85597900628838, 26.449019381616203, -63.776673201943794, -53.540917509764945, 67.89656413236459, -6.12056705068738, 69.12111242160925, 56.83155337735446, -48.11922530259176, -42.24138630549755, -18.070604879840463, -2.6385393574510427, 58.559577824186675, -31.424563932884816, -30.758036669747348, 69.96767075270681, 27.53195577665221, -0.4328588436588987, 27.87570543991056, 13.854266022964058, -9.374654178131754, -34.32173913830761, -32.499475576339364, 3.651085143287076, 28.506454102024296, -7.7761218004065675, -42.01455616528392, 9.107911919417129, -11.477319354540192, -25.511641033331237, 6.249440305939441, 28.59525854893525, 11.503183030698354, -0.5459976785294611, 23.831585802044806, -16.084666043018295, 11.107850130846902, 9.905645620212447, -5.038527285644461, -1.81929619413198, 7.883650836373274, 3.7665594421052253, -10.014688573242655, 1.4392046440050743, -5.930031992022308, 3.7883630327400803, -2.4070486052088356, 7.6522869001152785, -0.7606121496382064, -2.190197305529931, -4.1088656156049685, -2.126550866972538, -5.695020947621975, -2.6962508154659344, -3.474506310323168, -9.933101118489308, 5.374916712519705, -2.460606156963715, -6.556360785086921, -3.917776317438456, 2.303282551896464, 1.6466577947237862, -5.479856377896265, 0.1848588515435946, 1.4063826721630717, 2.743358853980709, -1.3511415730707046, 1.1435329298457158, -0.03733950503891892, -3.3782294852412327, -2.4774143435473372, 0.08497791381602338, 0.7264793060644505, -1.2167709846424528, 1.722860745009315, 3.3860904118896062, 2.923335978462183, 1.6133124032055561, -1.5815663128072281, -1.463081068071574, 2.821292744635702, 1.5017044364197236, 0.8832775443723363, 2.5405365173768124, -0.40408449881892516, -1.1527882072514797, 0.04679773267721554, -0.394277206643205]",-5.297714285714285,-3.4170000000000003,-5.38,-3.33,1.0,CB,_,130.0,PEDOT:PSS,PFN-Br,11.6,11.62,0.93,17.35,72.0
"[-96218.45766618998, 38190.55941397739, 9341.19863978244, -298.0321681723599, 3837.039845288656, -633.0815150821412, -1318.980794355729, 952.285808193773, 528.6042339012306, -265.75996339509254, 85.60403763240663, 327.51410203292335, 339.9238825739942, -217.3938336123946, 80.63195135367053, -89.32083633853233, 32.19492584684396, -21.519530699055707, -3.6266113552724115, -73.04368468656011, 86.79421267883791, 28.9157151412623, 61.36551771993493, -20.29937758864763, -20.5145225649866, 1.7418865694839667, -22.377181673057002, 12.371971410300219, 34.95291732805864, 10.187903617561325, 15.16604348820858, 8.612060636243209, -1.1743635221400766, 7.0376682218726625, -4.093627003889395, 9.922048209550361, -15.554840299560915, -5.613674452998811, -0.2972665085945745, 4.368352481075529, -3.6043195792310403, 1.354200703685919, 2.8516893216669104, -4.255469010620061, 8.299974464104451, 1.2791418187815111, 1.2654639155740988, -2.171801897186288, 0.7563528622149089, 1.6309678283868045, 0.8461705305940708, 3.200150728577338, 4.514637663770485, 2.047832060332592, 0.988495732690156, 3.0209744065138135, -1.0787642655477623, -0.5848165573459294, 0.7450505682325215, 0.7138952097940852, -0.4513392507860554, 0.44000043161623736, 0.9076636698868725, -0.7553614212014921, -1.1367214236829248, 1.4883333004282742, -0.6534390261587824, -0.2020478861539523, 0.5979438493412772, 0.35044047212350127, 0.5920200016964907, -0.4545510567545348, 1.2436977886366634, 0.06188974879205844, 0.28770923066137755, 0.34025436763747585, 0.054350949740208376, 0.15963437295462057, -0.5109982693033068, 0.3735134387368202, 0.6870145153430531, 0.38216412404326583, -0.20553217795980494, -0.08297866327442271, -0.09481622405384194, -0.0074888306561717854, 0.442508262678758, 0.06098427500299941, -0.4139541096843904, 0.14832844029545988, -0.294554145147611, 0.015892796356977712, 0.1548609075275289, -0.005654655004061704, 0.07842930267586645, -0.20841896255037717, 0.07855635365402769, 0.01820150849557578, 0.012441639298426566, -0.05940224021880214, 0.12084591158474112, 0.026787833651969892, 0.019668535058581682, 0.05537380493890609, -0.03933624965050253, 0.009307974571203914, -0.023474896973407267, 0.020049719383548492, 0.003215210697313786, -0.04194589694978035, 0.04089452902605473, 0.02749361263995076, -0.07262298298187164, 0.015379054954234306, 0.0506532373375812, 0.01506994111025417, -0.02377975685210143, 0.009711782809699865, -0.04845640783987859, 0.03322037544939782, -0.008444174408285043, -0.002255075440015908, 0.022455666638478533, -0.005795103590370054, 0.02421124183525336, 0.01760123567103644, -0.016655303062377946, 0.018813816162650987, -23610.005156373052, 19711.62615126121, -11853.952355077803, 752.0067165797072, -4464.060937343539, 1198.39325205694, -1480.34691869974, -696.9527281732918, -572.2556714268023, 195.32674266409862, 423.19187948589035, 434.24746773603, 381.28115230597484, -1000.712011820335, -1182.0871888455051, 432.4972388338513, -2159.4554390728877, 329.25332954603925, 311.108607697766, -1266.871094851392, 342.99530769167313, -288.31966283474526, 412.4489184402415, 36.29087064724261, -922.1118197480636, 643.7596913684802, -71.81103614705171, 268.08956375099405, -242.6444260480531, -16.422249250621007, 546.0581944714554, -47.43811810831758, 148.35747361967822, -225.16470064722492, 26.269038549583456, -34.90978795577862, 6.919709963359949, -7.461773199480611, -50.93954023885032, 187.17430634077013, 132.82541382652772, 139.51376940438243, 33.087785380033296, -91.2196210875853, 103.3012977373597, -2.8779455612849105, 86.16761067327086, 24.126201736728724, -25.871396552067058, -10.872068766313262, 5.101572836059352, 15.70358328325586, 33.44790870500684, -57.04694227975846, -47.11561245908294, 53.93784411862703, -0.7268957258369291, 23.70094774698749, 47.73941460376847, 16.579869545232896, -17.08829564439322, -36.02623318739511, -27.453097941044398, 20.780732757699653, 38.59709837129739, -6.954240435817451, -16.77064599005334, 35.83316594365154, -2.219728333583732, -28.618291138047837, 11.128833961747416, 27.802654381951022, 8.079956073896737, -27.41812561363471, 3.3788659172528535, -10.939346091921237, 6.3557206852901045, 9.51602008301169, -22.173293951499026, 11.616459961075284, 13.337926835381479, 4.842828568970086, -20.598888874387637, 7.832561402029931, 4.704442805717385, 2.6863901641583148, -0.7444343964103561, -5.645335807401475, -18.221619043089063, 1.5918418666740726, -6.601252410936475, 8.175775247008868, 2.996812269034912, -2.673983351149614, 3.0648379020003826, -4.328561316593227, -8.714236326739398, 0.48549596546695994, -0.017089153237075383, 1.8909015527957003, 1.0235097818742447, -7.053549646649316, -1.8714272314798825, -3.2950467333189186, -1.5571205010998685, 2.3666030240358857, -7.19684856906887, -11.216467666245444, -4.022432032865501, 0.18156342126796243, 5.745397496940803, -3.2339503003626238, -0.20107462007677057, 3.208780572187365, 1.3991932204321804, 0.7503269667405368, 0.8941578417984424, -3.862895150038849, -0.5985711740189608, 1.7197764065616727, -1.4577281357110756, -0.09102466405314047, -0.41043998202735743, 3.3192083700450716, -1.9990448432674275, -1.8310421634906544, -0.28290014332730884, -4.240082211470111]",-5.297714285714285,-3.4170000000000003,-5.37,-3.31,1.0,CB,_,130.0,PEDOT:PSS,PFN-Br,9.3,9.31,0.97,15.34,62.6