DA_mordred_pca,HOMO_D_eV,LUMO_D_eV,HOMO_A_eV,LUMO_A_eV,D_A_ratio_m_m,solvent,solvent_additive,annealing_temperature,hole_contact_layer,electron_contact_layer,PCE_percent,calc_PCE_percent,Voc_V,Jsc_mA_cm_pow_neg2,FF_percent
"[-96218.45766618998, 38190.55941397739, 9341.19863978244, -298.0321681723599, 3837.039845288656, -633.0815150821412, -1318.980794355729, 952.285808193773, 528.6042339012306, -265.75996339509254, 85.60403763240663, 327.51410203292335, 339.9238825739942, -217.3938336123946, 80.63195135367053, -89.32083633853233, 32.19492584684396, -21.519530699055707, -3.6266113552724115, -73.04368468656011, 86.79421267883791, 28.9157151412623, 61.36551771993493, -20.29937758864763, -20.5145225649866, 1.7418865694839667, -22.377181673057002, 12.371971410300219, 34.95291732805864, 10.187903617561325, 15.16604348820858, 8.612060636243209, -1.1743635221400766, 7.0376682218726625, -4.093627003889395, 9.922048209550361, -15.554840299560915, -5.613674452998811, -0.2972665085945745, 4.368352481075529, -3.6043195792310403, 1.354200703685919, 2.8516893216669104, -4.255469010620061, 8.299974464104451, 1.2791418187815111, 1.2654639155740988, -2.171801897186288, 0.7563528622149089, 1.6309678283868045, 0.8461705305940708, 3.200150728577338, 4.514637663770485, 2.047832060332592, 0.988495732690156, 3.0209744065138135, -1.0787642655477623, -0.5848165573459294, 0.7450505682325215, 0.7138952097940852, -0.4513392507860554, 0.44000043161623736, 0.9076636698868725, -0.7553614212014921, -1.1367214236829248, 1.4883333004282742, -0.6534390261587824, -0.2020478861539523, 0.5979438493412772, 0.35044047212350127, 0.5920200016964907, -0.4545510567545348, 1.2436977886366634, 0.06188974879205844, 0.28770923066137755, 0.34025436763747585, 0.054350949740208376, 0.15963437295462057, -0.5109982693033068, 0.3735134387368202, 0.6870145153430531, 0.38216412404326583, -0.20553217795980494, -0.08297866327442271, -0.09481622405384194, -0.0074888306561717854, 0.442508262678758, 0.06098427500299941, -0.4139541096843904, 0.14832844029545988, -0.294554145147611, 0.015892796356977712, 0.1548609075275289, -0.005654655004061704, 0.07842930267586645, -0.20841896255037717, 0.07855635365402769, 0.01820150849557578, 0.012441639298426566, -0.05940224021880214, 0.12084591158474112, 0.026787833651969892, 0.019668535058581682, 0.05537380493890609, -0.03933624965050253, 0.009307974571203914, -0.023474896973407267, 0.020049719383548492, 0.003215210697313786, -0.04194589694978035, 0.04089452902605473, 0.02749361263995076, -0.07262298298187164, 0.015379054954234306, 0.0506532373375812, 0.01506994111025417, -0.02377975685210143, 0.009711782809699865, -0.04845640783987859, 0.03322037544939782, -0.008444174408285043, -0.002255075440015908, 0.022455666638478533, -0.005795103590370054, 0.02421124183525336, 0.01760123567103644, -0.016655303062377946, 0.018813816162650987, -35133.7948384405, -8229.633002095004, -12056.006677875394, 2789.4971387186242, -6137.391894299175, 347.2184125819449, 313.56897363838834, -763.0529003245208, -753.2713027045285, -463.7277561870353, 442.3965848250751, 144.76451622384843, -82.11980750356622, -241.51593372271438, -166.11661214239564, 161.0117266220481, 156.82867720048182, 45.04865333330787, -64.48252064437057, -23.748315205729725, 175.35196382208807, 75.91403661606171, -286.96291437231935, 32.43950758749915, 86.82629792655737, 17.332913738685377, -52.109964316334626, 147.96654517479746, -66.74616426635947, -30.131339361474026, -64.6842293414586, -20.401781789495175, -60.814467118058936, -33.126806506498966, -10.042152655421425, -51.312256336249625, 3.144366245462294, -3.71627624153237, 36.40376072528973, 0.4548085410526568, 8.77647477218483, -28.125389876423775, 2.49569238193056, -12.913454340121639, 4.879924205036842, -2.3377624767900205, -6.672954601090133, 6.202739337502919, -10.893634984359561, 12.032465269856662, -12.063043989303566, -0.34303639091355365, 5.016332629152714, 0.12086901313429266, -9.726503251923347, 6.137316418082435, -7.076062334661124, 7.3653218625323404, 3.5070409455817924, 2.301233891752652, 4.71929931757742, -1.926768238609477, -5.728496834707801, 0.05692591901005528, -4.227503980921206, 0.19035190488374848, -0.8161738905036682, -0.4714746073762517, 0.016165936440852846, 1.5320458160517845, -3.625921731256579, -1.3255082942715024, 1.0395488339674301, -2.629665545987187, 0.2524077098567754, -0.25955818195747327, -0.9738252465763915, -0.4436497764515863, 0.3498051835956417, -0.5126149363315342, -1.3513245580317377, 0.2982577901396226, 2.0905817811936993, -1.423686297008441, -0.5684747340003078, 0.06286388557579237, 1.556243536792186, 0.47664310848808533, 1.3381005503037402, 1.3274012761810585, -0.18103683328045683, 0.13158711423599634, -0.35216959119522606, 0.24205021276454275, -0.19716096928100413, 0.3411096425350699, 0.8983261097286253, -0.17492589746772325, -0.26859509238574053, -0.13780411398829884, 0.2481245213135157, -0.23952231622609954, -0.5478870274515413, 0.5484971724321479, 0.500298126046161, -0.06133469645540579, -0.3248140481935957, 0.313231347131103, 0.63465776568537, 0.5975958356568718, -0.21144062004099506, -0.6749983329678217, -0.32992632468938865, 0.3033181272449559, -0.12238950451054809, 0.06097724241096092, 0.2639722379565246, -0.2236154184593273, 0.06848499166746613, -0.30866773947200965, -0.13429432396519503, -0.2605157287139417, 0.0014308004863301527, 0.11389554910299449, -0.08035043575031331, -0.3428563737769905, -0.05785525732550667, -0.006029155567380151]",-5.297714285714285,-3.4170000000000003,-5.574146341463415,-3.915,1.0,CB,DIO,120.0,PEDOT:PSS,PFN-Br,10.4,10.43,0.89,16.5,71.0
"[-96218.45766618998, 38190.55941397739, 9341.19863978244, -298.0321681723599, 3837.039845288656, -633.0815150821412, -1318.980794355729, 952.285808193773, 528.6042339012306, -265.75996339509254, 85.60403763240663, 327.51410203292335, 339.9238825739942, -217.3938336123946, 80.63195135367053, -89.32083633853233, 32.19492584684396, -21.519530699055707, -3.6266113552724115, -73.04368468656011, 86.79421267883791, 28.9157151412623, 61.36551771993493, -20.29937758864763, -20.5145225649866, 1.7418865694839667, -22.377181673057002, 12.371971410300219, 34.95291732805864, 10.187903617561325, 15.16604348820858, 8.612060636243209, -1.1743635221400766, 7.0376682218726625, -4.093627003889395, 9.922048209550361, -15.554840299560915, -5.613674452998811, -0.2972665085945745, 4.368352481075529, -3.6043195792310403, 1.354200703685919, 2.8516893216669104, -4.255469010620061, 8.299974464104451, 1.2791418187815111, 1.2654639155740988, -2.171801897186288, 0.7563528622149089, 1.6309678283868045, 0.8461705305940708, 3.200150728577338, 4.514637663770485, 2.047832060332592, 0.988495732690156, 3.0209744065138135, -1.0787642655477623, -0.5848165573459294, 0.7450505682325215, 0.7138952097940852, -0.4513392507860554, 0.44000043161623736, 0.9076636698868725, -0.7553614212014921, -1.1367214236829248, 1.4883333004282742, -0.6534390261587824, -0.2020478861539523, 0.5979438493412772, 0.35044047212350127, 0.5920200016964907, -0.4545510567545348, 1.2436977886366634, 0.06188974879205844, 0.28770923066137755, 0.34025436763747585, 0.054350949740208376, 0.15963437295462057, -0.5109982693033068, 0.3735134387368202, 0.6870145153430531, 0.38216412404326583, -0.20553217795980494, -0.08297866327442271, -0.09481622405384194, -0.0074888306561717854, 0.442508262678758, 0.06098427500299941, -0.4139541096843904, 0.14832844029545988, -0.294554145147611, 0.015892796356977712, 0.1548609075275289, -0.005654655004061704, 0.07842930267586645, -0.20841896255037717, 0.07855635365402769, 0.01820150849557578, 0.012441639298426566, -0.05940224021880214, 0.12084591158474112, 0.026787833651969892, 0.019668535058581682, 0.05537380493890609, -0.03933624965050253, 0.009307974571203914, -0.023474896973407267, 0.020049719383548492, 0.003215210697313786, -0.04194589694978035, 0.04089452902605473, 0.02749361263995076, -0.07262298298187164, 0.015379054954234306, 0.0506532373375812, 0.01506994111025417, -0.02377975685210143, 0.009711782809699865, -0.04845640783987859, 0.03322037544939782, -0.008444174408285043, -0.002255075440015908, 0.022455666638478533, -0.005795103590370054, 0.02421124183525336, 0.01760123567103644, -0.016655303062377946, 0.018813816162650987, -31406.88423208709, 11230.438651035245, -12951.880356603218, 1723.4684331409887, -5949.224897240835, 2225.930436170897, -48.67457148790055, -885.3320732776339, 222.49683130246606, 2056.8124636873567, -383.04585772472893, -328.3777254783506, -704.4059188541003, -88.03400059866344, -421.5195046597707, 456.38287151832077, -933.0944710771801, -983.9774687251794, 505.4180278847079, -887.5804847708888, -101.23530642029684, -1084.8261086784362, 1115.2147030073006, 621.3150617815925, -304.1698712107612, 667.748961269979, -370.90731827649677, -120.73639491639682, -524.9693730505493, 122.99782871803619, -76.70320899758573, -87.3109563860721, 23.321118462187844, -241.7931701780359, 158.4988025053604, 225.66989257255227, -142.5886861889835, 107.01368559003888, 108.33178339350813, 119.70617437244655, 84.98608499780555, -114.82419584442565, 25.975962015070305, 186.47901913876925, -58.54883435093173, -48.25419013301434, -42.39983324158219, 31.71359964363367, -60.95249542436973, 38.28032279129344, -27.801225198371135, 53.93762380789999, 19.549849914894995, 30.57781563540491, -16.60857111293204, 19.244305243809073, -46.558056302451575, -24.098379897922328, 61.445329688450435, 41.45975428253084, -22.122053977542254, 14.977946340548145, -28.05351804636262, 3.643996986036159, 13.329041839461754, -6.098815168474543, -59.0028758054838, 53.4559948541563, 22.315344475599996, -23.284082485697787, 22.276690792988887, 17.819419688626738, 22.849393831086957, 20.177761164171805, 34.81002062233391, -16.188706803604745, 22.197843126806053, 4.1131080082994735, -15.17048244297463, 4.1874100083898025, 3.243778748629726, -3.75738631006084, 2.743218830192471, -6.115614955905714, 17.591088642954016, -30.06609988556855, 4.170964325570307, -13.108265125278322, -5.241500607088268, 8.26538593334169, 5.814896600491668, -18.981179561419534, 5.218391342568675, -2.234893868441837, 2.3886763500082355, -11.415698617098185, -0.3668677595677816, -3.0790819078981206, 10.52027465653705, 1.566632938394605, 7.745112945115726, 5.502284527027514, 7.1615907014861975, 1.780885060466968, -5.444272970270358, 7.856476764127288, -0.028268745080090404, -7.970297845881858, 2.640745395078338, -3.450333620842663, 3.8452419419880197, -1.9185902619331747, -7.687015986905537, -9.078630044584138, -0.036403341251916244, -5.240989772592569, -1.1409412257525786, -5.650693339001517, -4.567807193119734, -2.1236165620978698, -1.5477827130540494, 0.755745825289714, -1.3661291068521533, 0.3931427562529155, 8.10752080414217, 0.9574711292119008, 0.6448842002286934, 1.005115529321613]",-5.297714285714285,-3.4170000000000003,-5.49,-3.81,1.0,CB,_,150.0,MoOx,ZnO,7.9,7.9,0.96,14.69,56.0
"[-96218.45766618998, 38190.55941397739, 9341.19863978244, -298.0321681723599, 3837.039845288656, -633.0815150821412, -1318.980794355729, 952.285808193773, 528.6042339012306, -265.75996339509254, 85.60403763240663, 327.51410203292335, 339.9238825739942, -217.3938336123946, 80.63195135367053, -89.32083633853233, 32.19492584684396, -21.519530699055707, -3.6266113552724115, -73.04368468656011, 86.79421267883791, 28.9157151412623, 61.36551771993493, -20.29937758864763, -20.5145225649866, 1.7418865694839667, -22.377181673057002, 12.371971410300219, 34.95291732805864, 10.187903617561325, 15.16604348820858, 8.612060636243209, -1.1743635221400766, 7.0376682218726625, -4.093627003889395, 9.922048209550361, -15.554840299560915, -5.613674452998811, -0.2972665085945745, 4.368352481075529, -3.6043195792310403, 1.354200703685919, 2.8516893216669104, -4.255469010620061, 8.299974464104451, 1.2791418187815111, 1.2654639155740988, -2.171801897186288, 0.7563528622149089, 1.6309678283868045, 0.8461705305940708, 3.200150728577338, 4.514637663770485, 2.047832060332592, 0.988495732690156, 3.0209744065138135, -1.0787642655477623, -0.5848165573459294, 0.7450505682325215, 0.7138952097940852, -0.4513392507860554, 0.44000043161623736, 0.9076636698868725, -0.7553614212014921, -1.1367214236829248, 1.4883333004282742, -0.6534390261587824, -0.2020478861539523, 0.5979438493412772, 0.35044047212350127, 0.5920200016964907, -0.4545510567545348, 1.2436977886366634, 0.06188974879205844, 0.28770923066137755, 0.34025436763747585, 0.054350949740208376, 0.15963437295462057, -0.5109982693033068, 0.3735134387368202, 0.6870145153430531, 0.38216412404326583, -0.20553217795980494, -0.08297866327442271, -0.09481622405384194, -0.0074888306561717854, 0.442508262678758, 0.06098427500299941, -0.4139541096843904, 0.14832844029545988, -0.294554145147611, 0.015892796356977712, 0.1548609075275289, -0.005654655004061704, 0.07842930267586645, -0.20841896255037717, 0.07855635365402769, 0.01820150849557578, 0.012441639298426566, -0.05940224021880214, 0.12084591158474112, 0.026787833651969892, 0.019668535058581682, 0.05537380493890609, -0.03933624965050253, 0.009307974571203914, -0.023474896973407267, 0.020049719383548492, 0.003215210697313786, -0.04194589694978035, 0.04089452902605473, 0.02749361263995076, -0.07262298298187164, 0.015379054954234306, 0.0506532373375812, 0.01506994111025417, -0.02377975685210143, 0.009711782809699865, -0.04845640783987859, 0.03322037544939782, -0.008444174408285043, -0.002255075440015908, 0.022455666638478533, -0.005795103590370054, 0.02421124183525336, 0.01760123567103644, -0.016655303062377946, 0.018813816162650987, -34301.91413170125, 7154.831446246277, -14071.766918424526, 2772.7527204464695, -5852.694801820786, 3543.5007393723427, 2579.627876280152, -676.5893756259165, 1142.3627450849065, 3975.1828248876614, 1883.5125004168904, 162.73175961249098, -1681.6161542965126, 110.32888153848909, -246.71201298324985, 1448.942368713155, -1858.64029345973, 1105.4891906453886, 763.9659900424274, 385.18563747960695, 787.4619191690181, -1153.4471760957758, 1515.6045014413367, -50.7818335454316, 169.63114695306683, -600.1627256725977, -168.85244349897619, 503.7416407209154, -930.5174716281406, -185.21907455293052, 770.108232031162, 153.5151819201209, 718.9331973294788, 146.8134777768296, 205.80305559679368, -303.7083256017241, 105.1051018544321, -342.6260055717251, 57.23686651667191, 305.947975583635, 148.68329812862152, 130.30623936254696, 121.332480160321, -219.1193544607705, -292.01537115543033, 23.166786487306645, 2.9528046089567486, -108.24577197756633, 45.94578008729383, 162.55537509474786, 50.35030750964307, 7.80746192161763, -164.49658369404753, 48.72603877489134, 69.35032415664588, 20.57900307239335, -42.605341201562084, -2.405530705434373, -53.29868000962293, 37.42958093290743, 49.82219126385202, 43.69423705300645, 6.952306854468315, 7.358449851803724, 13.868866527919135, 10.009341442994025, 20.633606686577693, -10.480634714411263, 3.249178838689354, -30.198542663445476, 28.903977802466358, 16.989183511694808, -15.073200381792889, -33.373403390003574, 22.094460984997397, 50.867941767720154, -1.2645785678291928, 21.92310599737952, 22.47732205997388, -13.78264644153707, -26.791334231252193, -18.917450991397665, 1.3692619074315555, 2.8379301528415883, 16.55007037510694, 17.32571105991464, 2.4859059155107466, -5.459742157295619, 10.076306942977302, 1.8618174522652948, -17.73911546426696, 1.7078517775448923, 0.17142055124772604, 7.474216660064554, -6.210274432629513, 22.35351327870456, -7.01125323420311, 13.191480628112014, 19.5635127468346, -9.868558107911358, -0.6688757723348644, 4.563803017239717, -0.033429217785320375, -6.998335291611304, 3.5219970295026846, -7.782978219111008, -6.6596971668491864, 0.6320301818079832, 4.842054590284658, -3.40143080467322, 14.281348768024936, 7.659353645335038, -6.5794838726762785, -7.7255151438794565, 10.017171215815297, 5.87370505872102, 5.429792942156649, -12.332738845590347, -3.033957529012036, -2.8122187804173553, 4.515013777382303, 0.08629401153805016, 1.1765439140141143, -3.166812267265753, -3.0682091319435667, -1.1367476954242148, 1.9131845859253156, -3.6334443500873315]",-5.297714285714285,-3.4170000000000003,-5.48,-3.9,1.0,CB,DIO,120.0,PEDOT:PSS,N719:PrC60MAI,10.56,9.59,0.904,16.32,65.0