DA_mordred_pca,HOMO_D_eV,LUMO_D_eV,HOMO_A_eV,LUMO_A_eV,D_A_ratio_m_m,solvent,solvent_additive,annealing_temperature,hole_contact_layer,electron_contact_layer,PCE_percent,calc_PCE_percent,Voc_V,Jsc_mA_cm_pow_neg2,FF_percent
"[253843.9871973587, -57261.97403843735, -13955.3110949334, 4981.404963529115, 480.9607524905605, 2737.544065212877, -3538.9995065335866, 459.57794809142234, 6065.28014890069, -238.39239726858614, 422.1855050068748, -4513.918275511556, -2206.695916563512, -484.9791092288755, 1139.4030625497983, -1129.5561018596318, -422.1633557291948, -922.3985217196628, 1178.9025266310375, 787.437175722521, 409.67969609584, -305.0050982412474, 258.07117058838, -138.00510243155526, -357.3432580384295, -229.52021516360216, -282.501040306897, 280.1572487354598, 631.7884521205647, 159.06419837089027, 59.83097896008076, -59.86967987845421, -37.72267342292488, -259.6765538183062, 165.70817271846946, -84.95429802872245, 87.5919805488532, -104.1971238167049, 20.222825253973255, 84.74639552574436, 57.3259043358337, -144.46903885583814, -50.78347436005285, -64.32967876580062, -32.73667898458298, -69.94826716526538, 3.424800154499298, 40.866364484034136, 63.65631283987623, -19.815249992623336, 40.80147123935478, -4.071365196693877, -5.206291460540007, -24.32481226269768, -4.210688652202091, 16.038853430281215, -16.732911682103698, -10.460866599145964, 5.889342516301895, -3.3691497315128416, -15.895031864058971, -9.964265796819006, -0.4777052691822945, 19.047945072273347, 11.135952467004273, -1.8261363170879665, 4.501807905320728, -8.867396650281636, -1.2829241461582939, -7.864307264130977, -7.247491632603243, 8.815939781383491, -3.9795378690160117, 3.768822027826353, 0.5464374949040511, 0.7493498320158132, -5.28187532754888, -0.9431476592306645, -6.121863260540246, 0.02403453198815697, -2.4491711847984377, -0.04694659004639412, -2.7948466908936993, -1.1892158625896085, -0.45462192991554673, -1.75887337291433, -1.1316478976762787, -0.7345706719098146, -2.427253856258414, -2.3239387672073173, 1.8393294803621139, -1.6760151228692575, 0.260965251420175, 0.7805750077597857, 0.8453161554126236, 2.5184118360391423, -0.25486510703977094, 0.30528637017977367, 1.3711610860432906, 0.5340013455221893, 1.4991259284386977, 0.9670743520071632, 0.981601159788186, 0.5542649165365496, -0.35319419145634123, 0.5944372128440607, -1.1464123542868978, 0.30516502694728054, -0.20756398685008026, 0.602784261190477, -0.07152595682203433, 1.048776658735295, -1.0773051680604486, 0.07300636871980437, -0.15810370612540048, 0.0076497279915854755, -0.07633498849692821, 0.1531558455883446, -0.46709714092109067, -0.18909277362075727, 0.17633276459507294, -0.11238210041545926, -0.026366497638424802, 0.008531403835767115, 0.08411119374514264, 0.03457796199617391, -0.08570819375599292, 0.030568001442589754, 27510.307775514295, -210459.97719219644, 16729.35751833557, -38382.704455700004, 1538.8963908077785, 1332.8209688797062, 2570.8462358759607, 3081.1755358265086, -1598.346872771145, -2095.509087052594, 325.8744994078902, 970.1816010399334, -1938.3159383183686, 755.8794537381876, 277.38579529016306, -607.5887275914773, 1081.3728921835432, -1618.7447277938377, -2130.4237924763574, -1295.891710710652, -291.84023803872856, -1099.0141812214445, -47.67657096482617, 0.38288364469235603, -60.12933113030522, 179.13899843944023, -538.648539692552, 451.72404973758745, 319.01289966314516, 19.878779696695176, 662.2816563240553, 103.01417541806097, -300.1349456752689, -286.5167401429645, -175.45340432360044, 160.46464636262093, 29.76052200965586, 81.71973001850364, -2.956460846395297, 224.55369058464498, 46.681747870698956, -15.19458548245504, -180.57052102516565, -11.153247051346554, -118.857747226626, 46.120964951616855, -61.9089350120564, 27.94105841395566, 11.747223122609398, -51.64689262827643, 71.70321396305764, -107.64066336840798, 85.39336769067572, 2.7640109042497443, 2.115793534972852, 53.8441465378163, -53.52069218300191, 7.516992552815765, 11.955313520344703, -24.306585059751853, 47.297466874217946, 41.29945025222013, 16.985522862123858, 3.091593017622742, -25.35094954442036, -55.36971289399361, -17.36668604182911, -46.02019707044683, 15.499887882435853, -17.61819025208017, -5.518019286643778, -38.55117254604036, -10.500731463353546, -14.398068859618519, -33.989863809738495, 0.9115205222736904, 8.178745339240734, 5.557609715488457, 0.9787648548089152, 21.6507579788711, 9.794815856168505, 6.095837150952136, -12.715921645901943, 15.139716930019674, -7.413150551673027, -20.90251605840701, 13.357870792917115, 21.829529959915845, 6.487336890829832, -14.657992065919661, -25.932837227217412, 5.274799671104603, 7.911840916712137, 2.693681111026123, -5.274597638656189, 2.9355015837452996, 5.216013609867041, 0.08604583691669987, 2.165398357152071, -0.6569126305406883, 0.5840994058586535, 2.581117591544312, -0.8408362708808328, -0.14720723623933907, -3.172201831722276, -9.106766620614266, -7.192960885122888, -0.9275014258460033, -5.333669368804834, -1.2453229624333275, 1.7605324015270796, 0.43675942643621823, 0.010233746709275238, -3.903547533391901, -3.841956966982485, 1.5844394924945249, 6.951795409254629, 3.020048020839699, -1.795731436557169, 0.06564781860939206, -2.03510455947114, 1.3265756317995692, -3.009414096376208, 3.393546159447361, 3.367370023613777, 2.852855038546391, 4.299848046685625, -1.3597070227073331]",-5.23,-3.26,-5.98,-3.62,0.5,DCB,_,90.0,PEDOT:PSS,LiF,0.74,0.74,1.11,2.21,30.0
"[253843.9871973587, -57261.97403843735, -13955.3110949334, 4981.404963529115, 480.9607524905605, 2737.544065212877, -3538.9995065335866, 459.57794809142234, 6065.28014890069, -238.39239726858614, 422.1855050068748, -4513.918275511556, -2206.695916563512, -484.9791092288755, 1139.4030625497983, -1129.5561018596318, -422.1633557291948, -922.3985217196628, 1178.9025266310375, 787.437175722521, 409.67969609584, -305.0050982412474, 258.07117058838, -138.00510243155526, -357.3432580384295, -229.52021516360216, -282.501040306897, 280.1572487354598, 631.7884521205647, 159.06419837089027, 59.83097896008076, -59.86967987845421, -37.72267342292488, -259.6765538183062, 165.70817271846946, -84.95429802872245, 87.5919805488532, -104.1971238167049, 20.222825253973255, 84.74639552574436, 57.3259043358337, -144.46903885583814, -50.78347436005285, -64.32967876580062, -32.73667898458298, -69.94826716526538, 3.424800154499298, 40.866364484034136, 63.65631283987623, -19.815249992623336, 40.80147123935478, -4.071365196693877, -5.206291460540007, -24.32481226269768, -4.210688652202091, 16.038853430281215, -16.732911682103698, -10.460866599145964, 5.889342516301895, -3.3691497315128416, -15.895031864058971, -9.964265796819006, -0.4777052691822945, 19.047945072273347, 11.135952467004273, -1.8261363170879665, 4.501807905320728, -8.867396650281636, -1.2829241461582939, -7.864307264130977, -7.247491632603243, 8.815939781383491, -3.9795378690160117, 3.768822027826353, 0.5464374949040511, 0.7493498320158132, -5.28187532754888, -0.9431476592306645, -6.121863260540246, 0.02403453198815697, -2.4491711847984377, -0.04694659004639412, -2.7948466908936993, -1.1892158625896085, -0.45462192991554673, -1.75887337291433, -1.1316478976762787, -0.7345706719098146, -2.427253856258414, -2.3239387672073173, 1.8393294803621139, -1.6760151228692575, 0.260965251420175, 0.7805750077597857, 0.8453161554126236, 2.5184118360391423, -0.25486510703977094, 0.30528637017977367, 1.3711610860432906, 0.5340013455221893, 1.4991259284386977, 0.9670743520071632, 0.981601159788186, 0.5542649165365496, -0.35319419145634123, 0.5944372128440607, -1.1464123542868978, 0.30516502694728054, -0.20756398685008026, 0.602784261190477, -0.07152595682203433, 1.048776658735295, -1.0773051680604486, 0.07300636871980437, -0.15810370612540048, 0.0076497279915854755, -0.07633498849692821, 0.1531558455883446, -0.46709714092109067, -0.18909277362075727, 0.17633276459507294, -0.11238210041545926, -0.026366497638424802, 0.008531403835767115, 0.08411119374514264, 0.03457796199617391, -0.08570819375599292, 0.030568001442589754, -50333.925313946296, -144752.22440298292, 23383.583449776546, -31957.146015940107, 2386.9535134147936, -174.74607535894577, 6554.197060570337, 3727.6748141578205, -3675.4903701507415, -3012.403962909143, 1301.484684169478, 747.673056050296, -1297.4658432841695, -2165.2303139075757, -884.2985308518129, -1631.8685667680456, 1279.6293758336442, -610.4486905335073, -804.2153561595494, -1610.0988736063111, -783.8280766110101, -875.1393709820111, 266.7714800573921, -87.8787597277136, -658.055357100335, 175.46109891242247, -115.3759333316192, 427.76964848611755, -145.0715993817564, -62.24966256259765, -60.45203293461266, 419.5870183221038, 199.23173958450946, -213.29873283113966, -684.1531160474372, 161.45002984580003, 243.3720245744737, 50.04328008433839, 66.05332410907737, -197.8838914511097, 134.12554667221613, 183.0070661647408, 73.56276872390683, -16.819472763233733, -114.84426674192977, 71.55847465670453, 144.65856100547637, -82.63865318733912, 122.85525915179369, -54.47465077555932, 52.035143955479256, -121.79283888979893, -23.378788709529744, -24.57957663634437, 1.5961417795184047, 47.59460190196296, -18.23152889702942, 0.6238658940626749, 9.569476497111225, -41.49916928481218, 28.95126388805481, 56.6232245661157, -7.212989521448847, -15.064460762078703, 18.52134352477944, -49.258817575430356, 8.763883818942151, 33.10385951917293, 2.6923415864206195, -18.16115236001167, 22.67453290194633, -33.39008519901242, 18.80249812606999, 11.060716371764649, 38.65612638446812, -11.166582069578197, -8.098435367300478, -32.15712412364598, 12.420919999363576, -0.3916093730261707, -1.5242021766044243, -3.9510838006286875, -1.8802270975971282, 10.274011682632377, -22.067342939225, 12.061645000841168, -9.632747746466517, -5.08509321323794, -4.800396108200694, 6.2614409480923, 13.521080438019588, -2.380614003559998, -1.4276864000952045, -11.900437188694724, 0.5150095003389978, 12.232211126811698, 4.331238971047995, -17.544240475761168, 1.343906695294752, -5.759182481022435, -9.7496999899802, -9.146390111390822, 5.864257208546062, -1.8788154421174283, -8.589435885143565, 1.9668310976356622, 2.5830495766645303, -4.192907852651587, 5.779230479116954, 1.2326818698016169, -3.127153198333712, -3.8912615459271365, -0.28397925559596615, 3.364472022492663, 0.751150296087082, -1.648310280259139, 3.474706210168854, -2.791646433753577, -1.1237041674653376, 1.1091599970853707, -0.5130049517169706, -2.9004604882583305, 0.05840890280790845, 2.81880774446811, -7.497649167420214, 1.730623382790462, -5.996078540206881, 7.16276887327885]",-5.23,-3.26,-5.8,-3.65,0.5,DCB,_,90.0,PEDOT:PSS,LiF,0.13,0.13,1.24,0.37,28.0
"[-109895.5267820102, -108364.60251480529, -6074.282091621689, 2883.7213884084194, 5927.972580265788, 1150.2845823500993, 2725.605527586116, -2164.404219595339, -2254.6710656371642, 1634.8551849374676, 1693.3269209619548, 2399.1055511946142, -768.8946219043545, 125.90870493877492, 1184.132811082447, 393.641898170559, -1440.7844903385396, 34.95966330673673, -1019.467605164585, -149.82099681567013, 346.04234405125175, -181.7942882502991, -393.8975281026411, 616.2109136617773, 358.7487143988708, 204.64323828278793, -530.6014371838869, -25.65938054052822, 356.30936181450926, 38.39217278025612, -90.72818341491887, -418.3908325254501, 185.43128073580914, -3.4288798315332727, -64.85289086384182, -57.8433511548709, -106.81894749866018, -164.2265336517367, 233.48627315118142, -95.63001471887445, 53.44421158168076, 28.07483565142715, -56.927086758627695, -35.91322605738759, -64.13660045100184, -4.477866742468223, 14.25087732367264, -18.872000620262114, 5.180760023930887, 58.09544114572765, -33.773794651885325, -4.626612080047202, -55.04952723368112, -24.461704785992566, 42.17543417091057, 37.296648684229154, -5.898569618838284, -3.801219467206778, 1.7645758074180264, 5.273226885717179, -22.228802796941647, 4.525021596730966, 0.5461744899911309, 13.604401613801997, -36.83503877734747, -4.6392957267657735, -11.23975512881887, -6.103622634622482, 12.507802525316947, -2.546878597609247, -10.267710312233412, 3.961056607768427, 0.6571318543792444, -9.645435003577049, -11.916428192591383, 2.475014399623653, 3.96512071478503, 6.10504999630157, 0.7431581707963759, 19.525862497923853, 12.784910848127566, -7.866608301520998, -11.316781973132628, 0.25320533679368395, 0.9075675217315933, -0.2705650323038782, 0.1698387160529906, 3.0818683703726464, 8.063352027051078, -2.020310587074249, 3.4136843004092157, -4.849621861487954, 4.297540406553239, -2.0162555373957325, 0.3551113396102217, 4.396648738362785, 1.9624331921692337, -2.427147136664516, -2.320813842553598, 1.8065089143869515, -1.5810982652351129, 1.827211779249743, -3.563608805022735, 3.6345372311835433, -4.614079980536314, -3.15173970887583, 3.152539139426999, 2.9642707975509266, 0.2715316549831037, 0.04587676162302756, -1.0737059933384145, 0.43043583682653974, 1.4767861253819046, -0.4289184949064726, 0.8230710443658324, -1.7827749654589642, -0.07978732824919987, -0.7857802647528871, 0.34497051379878485, -0.9846305814252005, -1.6810383152851323, 0.1856214697244596, -0.5415473394549863, 0.26816743437733237, -0.05151396203962122, -0.431042592458887, -0.2648316164510689, -0.1634437633338024, -3280.0569168006027, -126443.25905927169, -1047.4489975257766, -13980.040990122681, 4204.358320534647, -1400.5011543192009, -3511.434929690504, -1999.962955868366, 4647.047264183368, 231.42728828971929, -946.3041956797165, -2537.3427503965686, -1231.2208383364639, -92.72737079366448, -1145.5944470574889, 283.5577159661459, -32.14909729348123, -86.5531230939016, 529.8735649812227, 770.4911078717374, -1492.2701095795646, -379.1195157443342, -541.2028039672869, 476.0603038943897, -1301.5544800130187, 97.8067855578222, 176.749266324052, -218.10751689065816, 382.1029804291848, -303.52142027090736, -91.05351936809701, 372.4485588468255, 55.53584951765643, 335.39430088766414, 433.55819492738334, -45.060546671663836, 29.408521609008915, -139.63984666164401, 197.21338502264257, -23.133096129071703, 100.73817320743282, -57.34413971400352, 84.77427794062416, -138.80079529993768, -20.872121241595025, -77.20406744911969, -243.09357265504917, 54.611388895626334, -48.50185313176112, -14.35415105663423, 50.18292578051911, -15.162613635465732, 1.9090138990531216, -37.26672168660926, -49.786244372366525, 42.51464184341354, -3.9745700342949135, -37.84948200543326, 12.676879168869107, -4.701566087628635, -6.901449153638637, 44.635889491116245, 1.9776223520127445, 5.745928464677661, -3.7748713036110644, -39.390726509843894, 27.055710724723472, 4.286841951978026, 8.961587946676591, -13.095679700575197, -4.289732157757733, -0.6520921337307772, 12.14597118799172, -15.149484041653043, -7.885126898079693, 6.894286753236244, 12.348188608694755, -5.051976965243057, -2.1313115283716897, -13.566949208345406, 3.4993955772014527, 26.995386175765596, -0.26794779310665007, 4.098787869590851, -1.9563373175685612, 3.520464993169039, 4.576485923727262, 1.9537232054193652, -2.026065880196189, -5.435024328978898, 7.162117954256651, 4.070760274361291, -3.7577737707661285, -6.19499503239129, 13.276777593648006, -8.119000391520046, -7.980859381631223, 1.5796108371383273, 9.649913443119098, -8.558254740585483, -6.173385579695804, -4.607491214529876, 3.274650941582479, 4.146249572106019, -2.1493493652816014, -0.23891729526815197, -1.297866504605226, 3.7173146807903326, 0.7807558814779565, 2.9903589545204916, 3.2562737640655133, -0.2865178267632018, -0.00900978521664797, -0.5039648683538746, -3.59891140633047, 2.6428374874949974, 0.409700416373866, 2.7597687196311895, 0.04978910805346004, 1.3679130827161075, 0.015385168011753159, -1.5352277244583963, -2.290743004495944, -3.6990386214033633, -1.4615495432228325, -2.017090672120821, 1.316966938177984, 0.46007684504139235]",-5.175,-3.435,-5.93,-3.86,0.833,CB,DIO,25.0,MoOx,ZnO,7.34,7.15,0.85,13.85,60.7