DA_mordred_pca,HOMO_D_eV,LUMO_D_eV,HOMO_A_eV,LUMO_A_eV,D_A_ratio_m_m,solvent,solvent_additive,annealing_temperature,hole_contact_layer,electron_contact_layer,PCE_percent,calc_PCE_percent,Voc_V,Jsc_mA_cm_pow_neg2,FF_percent
"[-40379.550777858196, 56004.069127593044, -10651.726564434246, -16787.81031422943, -4899.992121591016, -824.7283886742232, 3213.3355032253107, -1470.288885595245, 254.4377968009814, -1413.1146630484025, -524.4083602292874, -562.997720813155, -39.53950048797216, -237.61809197268883, 180.52903723581315, -190.73776488072147, -330.80306712396464, 99.72719854979664, -38.288725474699014, -15.193302786029136, -8.532246059522224, 145.04616544768794, 14.962058909511939, 123.04398183642466, 62.852427505583, -16.118058857090944, -46.56859833906233, -0.5575523560657274, -6.36498680353148, 16.394816676055783, 87.85016416866046, 16.04209532118321, 6.728058072640266, 31.819933043206213, 7.247524520540111, -16.595924642037062, 22.429503825143726, -34.30752403737112, -22.117717401179593, -42.53762441373334, 28.137558748772225, 2.22131123168802, 10.678808593591533, -14.694404223731631, 5.672198985063375, -1.6746084012166627, 3.5448396296069937, 4.439322415982939, 2.361717827741181, -7.79091708674293, -7.799464018746011, -0.06700113902227045, 6.275440131612939, 1.6816512012129223, 7.516755854741788, -1.3196602414838896, -1.599423863335157, 0.8523744266797966, 6.5919953227931884, -1.9930726417356155, 2.4730446865395805, -4.86740547502367, -1.6841737660247347, 1.6586533064853555, -0.8074568835944604, -3.2367193878033773, -2.1849438483133383, 0.21206456314353517, 3.0809245279681186, -0.19938566599949326, -1.7618285128175284, -0.05980224728117811, 2.9080797958751314, -0.2649007688640488, -1.4904110395030248, 0.9599817863349642, -2.062231625754352, 0.18250954513997886, 1.0587154103407115, -1.8898659848741381, 0.0828903647949275, 1.32594414559665, 0.358456040618492, -0.08392299601673514, -0.7357168466038431, 0.5569749078821111, 0.46639264895316324, 0.8106144831234943, 0.0036309183357334796, 1.615344045763857, -0.8126052081822834, 0.008561986029853585, -0.4374767812936806, -0.3645528964956295, 0.3530253133670438, 0.01993774228438383, 0.21970565142439824, 0.05638899422120147, 0.33798152978198814, 0.10894087739224645, -0.2310380143835129, 0.5971144474169652, -0.0568340402989147, -0.14432609544563313, 0.09196812189175685, -0.12801448064831078, 0.08893783919220155, 0.08315346312763339, 0.2048785099106445, -0.21622713001348914, 0.12256202799790294, 0.10820379300091787, 0.1865751938394018, -0.1645796925672459, 0.09908524542788655, -0.09534185566811182, 0.05572017504187965, 0.08364897859544218, 0.04476089133255723, -0.03247571883968092, 0.01741547505732921, -0.03798876088742631, -0.039233448534753634, -0.00874733060879862, 0.018554743515469596, 0.022867216035734828, 0.052540313824602336, -0.04783066929916302, -37739.0311895982, -19224.57952610387, -14526.348693264765, 5017.188838189108, -2519.434020590868, 859.5670945504157, 1226.1890877495516, -1146.5248105844555, 78.02688090112093, -1038.8145778190733, -427.62540473741024, 785.3340743574003, -747.4716492579316, 152.30286910053724, 28.418027994910602, 1802.9224069836816, 86.27285794606613, 289.9926243615531, 694.5567434570421, -53.55755066880138, 181.05963782528272, -667.7317703468568, -483.3695880248599, 70.87305014189369, 160.15367373334288, 114.36097731448439, -188.53403730614104, -8.712004105917377, -45.551350001341575, -0.9707843761266588, 117.48040413253362, 192.96991159316798, 236.52690266616963, 171.6318077363674, -103.04483431815099, 241.8238260314708, 116.05737771087249, 205.87239854232018, -117.77117135319735, -207.5516937631533, -175.0254482747325, -18.03405196565886, -106.49460773679681, -4.6889445265974, 25.278333768419756, 4.916477026145781, -4.809098892702853, 35.3700069222147, -40.346614396257536, -58.65052581420084, -8.833573347617502, -26.357931542537244, 11.677743666669187, -10.162665427738517, -21.643717461028004, -11.266361464549298, -13.314383350596778, 8.147623830084257, -1.6042819326886502, 6.714382870089651, -5.948246121265974, -3.2628977408539406, 21.51826354432119, -7.650218047155867, 1.058015516400161, 8.127023008422057, -6.493046717936828, 2.67635265235338, -5.325156941314324, -1.2329356617706644, -8.824677126275207, 1.9732437598413077, -7.008113027786656, 8.992743927256079, -6.854808229185923, 1.995110160872379, -4.9361992580605545, -2.890475700619845, 3.9479472645494162, -3.8968451920545704, 7.035564818906373, -3.1509848445803446, -5.614089928951064, 5.935901292210769, -0.06840438664595894, 1.0097439198674731, 0.4350028672285795, -3.7037319000312543, 2.821531236254426, 0.18758726311363816, 1.0242621020560598, 1.0900520460311114, -1.280204663913537, 0.016072486406685016, -1.117028882604579, 0.736547870970214, -0.294379940696631, 1.275388606689468, 2.3624233407860595, 0.6241319828746725, -1.3098556136817834, -2.323411576981389, -0.5809258622139968, 1.9540977974617277, -0.3340603768182753, -1.1847736297302267, -2.3869307728168994, -0.47964212846414744, 1.4244252902113743, -0.1940201680357312, 0.17736556949606896, 1.142328033681018, -1.756349669008248, -0.43679341942591265, -1.076580827478546, 1.616618491195199, -1.0175691133099924, -0.22262293293508106, -1.009064177281811, 0.06441851584274616, 0.1245818743738294, -0.8701494008856447, -0.22432538507920396, -0.26032237543350556, -0.5417281845118613, 0.6597838540923835, 0.3483195260254739, 0.4711695942020935]",-5.353333333333333,-3.4318181818181825,-5.604000000000001,-3.858000000000001,1.0,CF,_,150.0,PEDOT:PSS,PDINO,11.63,11.63,0.896,17.52,74.1
"[-40379.550777858196, 56004.069127593044, -10651.726564434246, -16787.81031422943, -4899.992121591016, -824.7283886742232, 3213.3355032253107, -1470.288885595245, 254.4377968009814, -1413.1146630484025, -524.4083602292874, -562.997720813155, -39.53950048797216, -237.61809197268883, 180.52903723581315, -190.73776488072147, -330.80306712396464, 99.72719854979664, -38.288725474699014, -15.193302786029136, -8.532246059522224, 145.04616544768794, 14.962058909511939, 123.04398183642466, 62.852427505583, -16.118058857090944, -46.56859833906233, -0.5575523560657274, -6.36498680353148, 16.394816676055783, 87.85016416866046, 16.04209532118321, 6.728058072640266, 31.819933043206213, 7.247524520540111, -16.595924642037062, 22.429503825143726, -34.30752403737112, -22.117717401179593, -42.53762441373334, 28.137558748772225, 2.22131123168802, 10.678808593591533, -14.694404223731631, 5.672198985063375, -1.6746084012166627, 3.5448396296069937, 4.439322415982939, 2.361717827741181, -7.79091708674293, -7.799464018746011, -0.06700113902227045, 6.275440131612939, 1.6816512012129223, 7.516755854741788, -1.3196602414838896, -1.599423863335157, 0.8523744266797966, 6.5919953227931884, -1.9930726417356155, 2.4730446865395805, -4.86740547502367, -1.6841737660247347, 1.6586533064853555, -0.8074568835944604, -3.2367193878033773, -2.1849438483133383, 0.21206456314353517, 3.0809245279681186, -0.19938566599949326, -1.7618285128175284, -0.05980224728117811, 2.9080797958751314, -0.2649007688640488, -1.4904110395030248, 0.9599817863349642, -2.062231625754352, 0.18250954513997886, 1.0587154103407115, -1.8898659848741381, 0.0828903647949275, 1.32594414559665, 0.358456040618492, -0.08392299601673514, -0.7357168466038431, 0.5569749078821111, 0.46639264895316324, 0.8106144831234943, 0.0036309183357334796, 1.615344045763857, -0.8126052081822834, 0.008561986029853585, -0.4374767812936806, -0.3645528964956295, 0.3530253133670438, 0.01993774228438383, 0.21970565142439824, 0.05638899422120147, 0.33798152978198814, 0.10894087739224645, -0.2310380143835129, 0.5971144474169652, -0.0568340402989147, -0.14432609544563313, 0.09196812189175685, -0.12801448064831078, 0.08893783919220155, 0.08315346312763339, 0.2048785099106445, -0.21622713001348914, 0.12256202799790294, 0.10820379300091787, 0.1865751938394018, -0.1645796925672459, 0.09908524542788655, -0.09534185566811182, 0.05572017504187965, 0.08364897859544218, 0.04476089133255723, -0.03247571883968092, 0.01741547505732921, -0.03798876088742631, -0.039233448534753634, -0.00874733060879862, 0.018554743515469596, 0.022867216035734828, 0.052540313824602336, -0.04783066929916302, -36018.8266295483, -6531.2657976064465, -13797.924419110079, 4490.710408578097, -2805.859279380726, 1156.4225064562102, 1627.5604849991696, -556.5128310623002, 617.0180222560983, 860.2773097485301, 1555.9527617842982, 7.365254592927386, -841.528402298583, 270.3303220693957, 1930.0588470662663, 1363.5105301920348, -276.78579375232806, 424.9685030359528, 153.7544361374595, -325.85508338918436, 402.2594402600731, -500.42213071110933, 150.80937178865992, 992.5026408031216, -217.0010253902635, 0.6850826269133421, 60.69082554091527, -206.61551906235525, -388.0709264462928, -362.6587844602043, 340.55244027486594, -53.13747091618876, 403.3025473910335, 207.52695751047474, 61.050171882844126, 16.969317574866828, 41.258778824731465, -183.09671667747088, 38.594092118464815, -47.409568619631585, -65.84172762877509, -80.67288275130163, -27.944784476064733, -126.66380400347765, -88.90133438509409, -47.170156869111224, 49.57828080583955, -9.362065279496619, 20.250687288005608, -0.07767502277044969, 22.24152207759353, -4.667199896794713, -68.17779603960685, -5.652009269739985, 22.052798401766537, 5.138613218808068, -42.28404199296273, 31.27290260544762, -39.87344201709735, -0.09801788560528735, 23.44682006114406, 1.0958416581724455, 6.88625942032602, 34.533310418086586, 14.263455877212802, -10.334651666677551, 14.049757073103628, -15.49091440471375, -8.65290278156354, -32.469162861644115, 28.43619636141108, -8.22974910476983, -4.080706815055638, -10.962563150527602, -1.6546179235848355, 7.71053946829084, 6.905361709722852, -0.9285887266458426, 4.455621380399178, 12.43302155002138, -8.998818790811786, -2.553768295086412, 5.820007867260217, -4.2569868911040025, 2.1595650902900303, -1.0267483804050253, 5.125942924173223, -0.6188641581709806, 3.4834342942593937, -2.4731760456581187, 0.6397697476822515, -5.737813930898525, 0.8495587925158237, 2.3716046478035615, -1.758573137326934, -1.8523069618003563, 0.2416295073629655, -2.002122328934411, -1.7685853999649614, 2.4927154101765403, 2.9248569490044733, 0.9446920390872453, 0.999592935865274, -1.7152119099890388, 0.6652149706349935, -1.878367864481321, 0.9455553227865701, 1.8635052604915876, -2.630669494347467, 1.2982243474306552, -0.5960396119137741, 0.5402890497175701, 0.4822698773327474, 4.653496074324556, -1.151761829503318, -2.0620141330270947, -0.6108861323895756, 0.6330662246856944, -0.3111626465405184, -0.9777770973269788, -1.2230239968944634, -1.42453016322446, -0.5620380966635188, 2.2462648213284693, 1.0336244247294406, -0.9801269689165837, -2.0317617726223016, -0.9210981810334564]",-5.353333333333333,-3.4318181818181825,-5.57,-3.93,1.0,CF,_,150.0,PEDOT:PSS,PDINO,12.54,12.54,0.918,18.41,74.2
"[-20402.97482281831, 32685.832328405657, -23883.432732082663, 4512.149788516197, 511.73664949718614, -766.056638281384, -2584.45748487786, 4115.8574894475405, 1839.9559205608641, -1479.4934216407974, -2234.351921994697, -704.03477077809, 1620.8143968458107, 740.5589925761067, 53.84771522673066, -1163.3783562670872, 540.3933958895948, 768.0820261862175, -295.33978543779654, -34.82923572911278, -781.9407847771928, -437.7456464628564, -365.32272602880744, -323.2318091603061, -82.11755280592584, -367.18969374623487, 171.74742748752843, -248.8474910134058, -135.46453979989874, 130.7456110590615, -433.6694370108695, -395.68797292241453, -98.21467143886818, 24.234922083570996, 266.3126808302522, -165.47277296396018, 117.84116633798226, 14.523845154871594, -128.46721780088862, -188.15951914094018, 122.24822112327203, -62.99507226940712, -82.77743337586024, 9.579163183079146, -33.22298901428795, 58.42290468474708, -26.659632838254716, 72.66980420804148, 61.34010048403235, -81.59020446981214, 34.695686869683286, 30.608833403518915, 29.177673610347618, -35.623522096178625, 78.46218272953898, 32.11309178671695, -42.60556130530058, -36.48798117266021, -9.226835934386123, -22.64225124378683, 2.084078938729176, 42.153562220501556, -5.950977546752966, -43.30764647625732, -17.513305309133138, 11.289092417639033, 1.3035469174363072, -2.9237376285631846, -8.50659949588848, -22.870739338187086, 2.8695149235337922, -1.375742599148495, 2.328776891369015, -4.7306778440209705, 0.3339040620875551, -12.116813791330287, -11.458981245722502, 7.905316727230878, 0.06437869110914318, 1.5179468231808713, 12.003155018799731, -7.107368789818739, 8.30169188465866, -7.274292062493814, 6.606530461885399, 6.465433141809342, -8.052261617187066, -3.160028461294509, -0.4995548003111221, -1.9944112089834345, -5.849362486627719, 2.038255120461489, -2.8842483790424858, -9.0706321847569, -5.538624565690763, 2.465905723978654, -2.197710349611702, -1.4032459778580488, -0.6845850595224405, -1.938441597551908, -4.825391817521776, 1.2438392403710639, -1.5018001461521564, -2.3463029548668466, 2.766000757768864, 4.031345989221769, -2.6340162301650913, 0.040543538730274165, -0.9438264759049829, -0.680825882198135, -0.7038237666337412, -4.330927416408108, 1.0900486077047162, 1.927627834151811, -0.7947301523727148, 1.390731379171113, -1.4041636404171083, -2.9970627191568524, -0.0696783111760304, -1.0737090284334063, -0.7330014121917099, 1.2910880972987115, -0.7561383425203072, -3.2805871277583787, 1.6812055840518774, 0.08276729693903206, -1.0315914211174597, -0.8232850918648218, -35133.7948384405, -8229.633002095004, -12056.006677875394, 2789.4971387186242, -6137.391894299175, 347.2184125819449, 313.56897363838834, -763.0529003245208, -753.2713027045285, -463.7277561870353, 442.3965848250751, 144.76451622384843, -82.11980750356622, -241.51593372271438, -166.11661214239564, 161.0117266220481, 156.82867720048182, 45.04865333330787, -64.48252064437057, -23.748315205729725, 175.35196382208807, 75.91403661606171, -286.96291437231935, 32.43950758749915, 86.82629792655737, 17.332913738685377, -52.109964316334626, 147.96654517479746, -66.74616426635947, -30.131339361474026, -64.6842293414586, -20.401781789495175, -60.814467118058936, -33.126806506498966, -10.042152655421425, -51.312256336249625, 3.144366245462294, -3.71627624153237, 36.40376072528973, 0.4548085410526568, 8.77647477218483, -28.125389876423775, 2.49569238193056, -12.913454340121639, 4.879924205036842, -2.3377624767900205, -6.672954601090133, 6.202739337502919, -10.893634984359561, 12.032465269856662, -12.063043989303566, -0.34303639091355365, 5.016332629152714, 0.12086901313429266, -9.726503251923347, 6.137316418082435, -7.076062334661124, 7.3653218625323404, 3.5070409455817924, 2.301233891752652, 4.71929931757742, -1.926768238609477, -5.728496834707801, 0.05692591901005528, -4.227503980921206, 0.19035190488374848, -0.8161738905036682, -0.4714746073762517, 0.016165936440852846, 1.5320458160517845, -3.625921731256579, -1.3255082942715024, 1.0395488339674301, -2.629665545987187, 0.2524077098567754, -0.25955818195747327, -0.9738252465763915, -0.4436497764515863, 0.3498051835956417, -0.5126149363315342, -1.3513245580317377, 0.2982577901396226, 2.0905817811936993, -1.423686297008441, -0.5684747340003078, 0.06286388557579237, 1.556243536792186, 0.47664310848808533, 1.3381005503037402, 1.3274012761810585, -0.18103683328045683, 0.13158711423599634, -0.35216959119522606, 0.24205021276454275, -0.19716096928100413, 0.3411096425350699, 0.8983261097286253, -0.17492589746772325, -0.26859509238574053, -0.13780411398829884, 0.2481245213135157, -0.23952231622609954, -0.5478870274515413, 0.5484971724321479, 0.500298126046161, -0.06133469645540579, -0.3248140481935957, 0.313231347131103, 0.63465776568537, 0.5975958356568718, -0.21144062004099506, -0.6749983329678217, -0.32992632468938865, 0.3033181272449559, -0.12238950451054809, 0.06097724241096092, 0.2639722379565246, -0.2236154184593273, 0.06848499166746613, -0.30866773947200965, -0.13429432396519503, -0.2605157287139417, 0.0014308004863301527, 0.11389554910299449, -0.08035043575031331, -0.3428563737769905, -0.05785525732550667, -0.006029155567380151]",-5.13,-3.16,-5.574146341463415,-3.915,0.5,CF,_,150.0,PEDOT:PSS,PDINO,4.8,4.87,0.71,12.93,53.0