DA_mordred_pca,HOMO_D_eV,LUMO_D_eV,HOMO_A_eV,LUMO_A_eV,D_A_ratio_m_m,solvent,solvent_additive,annealing_temperature,hole_contact_layer,electron_contact_layer,PCE_percent,calc_PCE_percent,Voc_V,Jsc_mA_cm_pow_neg2,FF_percent
"[-105631.73783275932, -74572.73247403272, 4329.753734020427, -2341.4243576849567, -5555.485216633641, -172.87819728700106, -798.6979620852667, 856.8010146047068, -1780.8026309386028, 649.5717848685752, 65.62447326392157, 388.30062073400836, -353.1258883999071, -137.697950651705, 31.52142203119479, -106.39355730444561, 81.98057692092414, -63.14138686604906, 66.8688432765725, -31.850017336689234, -14.562814664564094, -114.9941249091529, 19.27422754978045, 6.86920436049806, -13.362968611123335, -88.88424698589336, -9.680549433746734, -6.256532059762719, -19.287322586292646, 30.85187752382363, -0.060728621664203786, -1.7204165771485123, 18.096287928493183, -5.394264557244732, 40.036620565000476, -33.18107886987201, 2.1644049971745574, -3.5496157331860445, 9.702406188567533, -7.574832588501394, 9.796433451870143, 2.157829321761511, -3.1218789726135014, 6.6756247366353705, -7.1588684345745435, -6.697268175137552, -1.4052090508045652, -1.9646060063565116, -5.4204105421624575, 3.32941670679557, -3.8499636318233144, -4.615352531498566, -0.07975953344401887, 3.391194367932755, -4.106358123047258, 1.501503218822819, 0.9563824343184066, -2.6973013366915453, 0.8798263076499495, -1.2664639901547048, 1.2677471291641744, 0.13775840341868673, -2.0083004655011223, 2.233635675897844, -1.9092080674585787, 1.3281780039048954, 1.7708225501106938, 0.11723884380987926, -0.7217945654510771, 0.020674104910288094, 0.6321921645490995, -0.12750860712933587, -0.7324806057772388, 0.387690081710673, 0.5704773577055064, -0.5561048571084157, 0.13303415142318897, -0.39533728660630274, -0.19314666767595423, -0.17136554860633169, -0.3105600644218782, 0.09227497024608411, 0.3640581811437116, 0.12456153887661969, -0.4900314009409783, -0.2105542507325282, -0.11287961723428896, -0.4896110545300445, -0.2576249538547408, 0.020036158749878297, 0.19004174677945684, 0.43512588848888356, -0.15984926722186188, -0.03699898168409543, -0.16184812575650298, -0.018640178199959223, -0.06970965394751483, 0.02644608400954951, 0.4184249457529603, 0.06710147780425979, -0.1455202420919477, -0.027435290436191195, 0.055771972451445606, -0.09475802435058256, 0.24207868559446766, -0.05282116924259128, -0.1882724966860181, -0.05346045629421603, -0.10831494984240475, -0.0036262226167114164, -0.026380022030597416, 0.020118181288705017, 0.03512820925391846, 0.029024371883522804, -0.050134402663047695, 0.01941571781524054, 0.00820689833365762, 0.059280726425585684, -0.07718365209846922, -0.05673269250273272, 0.03097365628437565, 0.0007247489018915587, 0.008388415516517256, 0.019782146741892603, 0.003491413958400358, 0.005668303566913835, 0.008251200563019978, 0.015433351818131769, -3280.0569168006027, -126443.25905927169, -1047.4489975257766, -13980.040990122681, 4204.358320534647, -1400.5011543192009, -3511.434929690504, -1999.962955868366, 4647.047264183368, 231.42728828971929, -946.3041956797165, -2537.3427503965686, -1231.2208383364639, -92.72737079366448, -1145.5944470574889, 283.5577159661459, -32.14909729348123, -86.5531230939016, 529.8735649812227, 770.4911078717374, -1492.2701095795646, -379.1195157443342, -541.2028039672869, 476.0603038943897, -1301.5544800130187, 97.8067855578222, 176.749266324052, -218.10751689065816, 382.1029804291848, -303.52142027090736, -91.05351936809701, 372.4485588468255, 55.53584951765643, 335.39430088766414, 433.55819492738334, -45.060546671663836, 29.408521609008915, -139.63984666164401, 197.21338502264257, -23.133096129071703, 100.73817320743282, -57.34413971400352, 84.77427794062416, -138.80079529993768, -20.872121241595025, -77.20406744911969, -243.09357265504917, 54.611388895626334, -48.50185313176112, -14.35415105663423, 50.18292578051911, -15.162613635465732, 1.9090138990531216, -37.26672168660926, -49.786244372366525, 42.51464184341354, -3.9745700342949135, -37.84948200543326, 12.676879168869107, -4.701566087628635, -6.901449153638637, 44.635889491116245, 1.9776223520127445, 5.745928464677661, -3.7748713036110644, -39.390726509843894, 27.055710724723472, 4.286841951978026, 8.961587946676591, -13.095679700575197, -4.289732157757733, -0.6520921337307772, 12.14597118799172, -15.149484041653043, -7.885126898079693, 6.894286753236244, 12.348188608694755, -5.051976965243057, -2.1313115283716897, -13.566949208345406, 3.4993955772014527, 26.995386175765596, -0.26794779310665007, 4.098787869590851, -1.9563373175685612, 3.520464993169039, 4.576485923727262, 1.9537232054193652, -2.026065880196189, -5.435024328978898, 7.162117954256651, 4.070760274361291, -3.7577737707661285, -6.19499503239129, 13.276777593648006, -8.119000391520046, -7.980859381631223, 1.5796108371383273, 9.649913443119098, -8.558254740585483, -6.173385579695804, -4.607491214529876, 3.274650941582479, 4.146249572106019, -2.1493493652816014, -0.23891729526815197, -1.297866504605226, 3.7173146807903326, 0.7807558814779565, 2.9903589545204916, 3.2562737640655133, -0.2865178267632018, -0.00900978521664797, -0.5039648683538746, -3.59891140633047, 2.6428374874949974, 0.409700416373866, 2.7597687196311895, 0.04978910805346004, 1.3679130827161075, 0.015385168011753159, -1.5352277244583963, -2.290743004495944, -3.6990386214033633, -1.4615495432228325, -2.017090672120821, 1.316966938177984, 0.46007684504139235]",-5.204782608695651,-3.5391891891891896,-5.93,-3.86,0.833,CB,DIO,25.0,MoOx,ZnO,9.9,9.93,0.9,17.24,64.0
"[-96218.45766618998, 38190.55941397739, 9341.19863978244, -298.0321681723599, 3837.039845288656, -633.0815150821412, -1318.980794355729, 952.285808193773, 528.6042339012306, -265.75996339509254, 85.60403763240663, 327.51410203292335, 339.9238825739942, -217.3938336123946, 80.63195135367053, -89.32083633853233, 32.19492584684396, -21.519530699055707, -3.6266113552724115, -73.04368468656011, 86.79421267883791, 28.9157151412623, 61.36551771993493, -20.29937758864763, -20.5145225649866, 1.7418865694839667, -22.377181673057002, 12.371971410300219, 34.95291732805864, 10.187903617561325, 15.16604348820858, 8.612060636243209, -1.1743635221400766, 7.0376682218726625, -4.093627003889395, 9.922048209550361, -15.554840299560915, -5.613674452998811, -0.2972665085945745, 4.368352481075529, -3.6043195792310403, 1.354200703685919, 2.8516893216669104, -4.255469010620061, 8.299974464104451, 1.2791418187815111, 1.2654639155740988, -2.171801897186288, 0.7563528622149089, 1.6309678283868045, 0.8461705305940708, 3.200150728577338, 4.514637663770485, 2.047832060332592, 0.988495732690156, 3.0209744065138135, -1.0787642655477623, -0.5848165573459294, 0.7450505682325215, 0.7138952097940852, -0.4513392507860554, 0.44000043161623736, 0.9076636698868725, -0.7553614212014921, -1.1367214236829248, 1.4883333004282742, -0.6534390261587824, -0.2020478861539523, 0.5979438493412772, 0.35044047212350127, 0.5920200016964907, -0.4545510567545348, 1.2436977886366634, 0.06188974879205844, 0.28770923066137755, 0.34025436763747585, 0.054350949740208376, 0.15963437295462057, -0.5109982693033068, 0.3735134387368202, 0.6870145153430531, 0.38216412404326583, -0.20553217795980494, -0.08297866327442271, -0.09481622405384194, -0.0074888306561717854, 0.442508262678758, 0.06098427500299941, -0.4139541096843904, 0.14832844029545988, -0.294554145147611, 0.015892796356977712, 0.1548609075275289, -0.005654655004061704, 0.07842930267586645, -0.20841896255037717, 0.07855635365402769, 0.01820150849557578, 0.012441639298426566, -0.05940224021880214, 0.12084591158474112, 0.026787833651969892, 0.019668535058581682, 0.05537380493890609, -0.03933624965050253, 0.009307974571203914, -0.023474896973407267, 0.020049719383548492, 0.003215210697313786, -0.04194589694978035, 0.04089452902605473, 0.02749361263995076, -0.07262298298187164, 0.015379054954234306, 0.0506532373375812, 0.01506994111025417, -0.02377975685210143, 0.009711782809699865, -0.04845640783987859, 0.03322037544939782, -0.008444174408285043, -0.002255075440015908, 0.022455666638478533, -0.005795103590370054, 0.02421124183525336, 0.01760123567103644, -0.016655303062377946, 0.018813816162650987, -35133.7948384405, -8229.633002095004, -12056.006677875394, 2789.4971387186242, -6137.391894299175, 347.2184125819449, 313.56897363838834, -763.0529003245208, -753.2713027045285, -463.7277561870353, 442.3965848250751, 144.76451622384843, -82.11980750356622, -241.51593372271438, -166.11661214239564, 161.0117266220481, 156.82867720048182, 45.04865333330787, -64.48252064437057, -23.748315205729725, 175.35196382208807, 75.91403661606171, -286.96291437231935, 32.43950758749915, 86.82629792655737, 17.332913738685377, -52.109964316334626, 147.96654517479746, -66.74616426635947, -30.131339361474026, -64.6842293414586, -20.401781789495175, -60.814467118058936, -33.126806506498966, -10.042152655421425, -51.312256336249625, 3.144366245462294, -3.71627624153237, 36.40376072528973, 0.4548085410526568, 8.77647477218483, -28.125389876423775, 2.49569238193056, -12.913454340121639, 4.879924205036842, -2.3377624767900205, -6.672954601090133, 6.202739337502919, -10.893634984359561, 12.032465269856662, -12.063043989303566, -0.34303639091355365, 5.016332629152714, 0.12086901313429266, -9.726503251923347, 6.137316418082435, -7.076062334661124, 7.3653218625323404, 3.5070409455817924, 2.301233891752652, 4.71929931757742, -1.926768238609477, -5.728496834707801, 0.05692591901005528, -4.227503980921206, 0.19035190488374848, -0.8161738905036682, -0.4714746073762517, 0.016165936440852846, 1.5320458160517845, -3.625921731256579, -1.3255082942715024, 1.0395488339674301, -2.629665545987187, 0.2524077098567754, -0.25955818195747327, -0.9738252465763915, -0.4436497764515863, 0.3498051835956417, -0.5126149363315342, -1.3513245580317377, 0.2982577901396226, 2.0905817811936993, -1.423686297008441, -0.5684747340003078, 0.06286388557579237, 1.556243536792186, 0.47664310848808533, 1.3381005503037402, 1.3274012761810585, -0.18103683328045683, 0.13158711423599634, -0.35216959119522606, 0.24205021276454275, -0.19716096928100413, 0.3411096425350699, 0.8983261097286253, -0.17492589746772325, -0.26859509238574053, -0.13780411398829884, 0.2481245213135157, -0.23952231622609954, -0.5478870274515413, 0.5484971724321479, 0.500298126046161, -0.06133469645540579, -0.3248140481935957, 0.313231347131103, 0.63465776568537, 0.5975958356568718, -0.21144062004099506, -0.6749983329678217, -0.32992632468938865, 0.3033181272449559, -0.12238950451054809, 0.06097724241096092, 0.2639722379565246, -0.2236154184593273, 0.06848499166746613, -0.30866773947200965, -0.13429432396519503, -0.2605157287139417, 0.0014308004863301527, 0.11389554910299449, -0.08035043575031331, -0.3428563737769905, -0.05785525732550667, -0.006029155567380151]",-5.297714285714285,-3.4170000000000003,-5.574146341463415,-3.915,1.0,CB,DIO,100.0,PEDOT:PSS,PFN-Br,10.6,10.59,0.93,17.0,67.0
"[-96218.45766618998, 38190.55941397739, 9341.19863978244, -298.0321681723599, 3837.039845288656, -633.0815150821412, -1318.980794355729, 952.285808193773, 528.6042339012306, -265.75996339509254, 85.60403763240663, 327.51410203292335, 339.9238825739942, -217.3938336123946, 80.63195135367053, -89.32083633853233, 32.19492584684396, -21.519530699055707, -3.6266113552724115, -73.04368468656011, 86.79421267883791, 28.9157151412623, 61.36551771993493, -20.29937758864763, -20.5145225649866, 1.7418865694839667, -22.377181673057002, 12.371971410300219, 34.95291732805864, 10.187903617561325, 15.16604348820858, 8.612060636243209, -1.1743635221400766, 7.0376682218726625, -4.093627003889395, 9.922048209550361, -15.554840299560915, -5.613674452998811, -0.2972665085945745, 4.368352481075529, -3.6043195792310403, 1.354200703685919, 2.8516893216669104, -4.255469010620061, 8.299974464104451, 1.2791418187815111, 1.2654639155740988, -2.171801897186288, 0.7563528622149089, 1.6309678283868045, 0.8461705305940708, 3.200150728577338, 4.514637663770485, 2.047832060332592, 0.988495732690156, 3.0209744065138135, -1.0787642655477623, -0.5848165573459294, 0.7450505682325215, 0.7138952097940852, -0.4513392507860554, 0.44000043161623736, 0.9076636698868725, -0.7553614212014921, -1.1367214236829248, 1.4883333004282742, -0.6534390261587824, -0.2020478861539523, 0.5979438493412772, 0.35044047212350127, 0.5920200016964907, -0.4545510567545348, 1.2436977886366634, 0.06188974879205844, 0.28770923066137755, 0.34025436763747585, 0.054350949740208376, 0.15963437295462057, -0.5109982693033068, 0.3735134387368202, 0.6870145153430531, 0.38216412404326583, -0.20553217795980494, -0.08297866327442271, -0.09481622405384194, -0.0074888306561717854, 0.442508262678758, 0.06098427500299941, -0.4139541096843904, 0.14832844029545988, -0.294554145147611, 0.015892796356977712, 0.1548609075275289, -0.005654655004061704, 0.07842930267586645, -0.20841896255037717, 0.07855635365402769, 0.01820150849557578, 0.012441639298426566, -0.05940224021880214, 0.12084591158474112, 0.026787833651969892, 0.019668535058581682, 0.05537380493890609, -0.03933624965050253, 0.009307974571203914, -0.023474896973407267, 0.020049719383548492, 0.003215210697313786, -0.04194589694978035, 0.04089452902605473, 0.02749361263995076, -0.07262298298187164, 0.015379054954234306, 0.0506532373375812, 0.01506994111025417, -0.02377975685210143, 0.009711782809699865, -0.04845640783987859, 0.03322037544939782, -0.008444174408285043, -0.002255075440015908, 0.022455666638478533, -0.005795103590370054, 0.02421124183525336, 0.01760123567103644, -0.016655303062377946, 0.018813816162650987, -37754.164548048495, -19327.042529332553, -15096.940489656408, 5124.107716995979, -2154.6889828214166, 1154.9376605225696, 1225.2118962165387, -2116.4033669942964, 16.500482493262325, -1720.0642651725414, -760.1029011954531, -54.77246319097833, 217.44528576751952, 268.7169453870923, -262.71057769762945, 2081.913776897456, -873.5610183949954, 1357.4412985314614, 1054.818500898795, -34.19581816781712, 143.62778688039646, -141.87690890107496, -838.8494587502005, 168.34074185833325, 318.83367926612385, -380.45606262484546, 254.89445821479848, -30.339453091534484, -339.47549321221067, -179.96949248757863, 944.4708247420897, -86.19122413556865, 103.48052812283791, 236.29021809626656, -241.71363786973689, 151.6797874545058, -346.8995500163265, 49.24386285304729, 86.5851346766564, -77.5294777251572, 80.03961914625353, -72.9225371484754, 75.13789583005527, 41.28853113535645, 60.844977143676616, 37.14393038304006, -60.70218686509676, -116.3927317947664, 33.045199351876626, 31.109365015365377, 2.6467436187049103, 41.63691707150882, -36.2765127118376, 9.693841953856492, 3.9216480420155477, 14.561855139974107, -39.08230535168265, 17.1842811989196, 24.07565618396712, 0.955649516911393, -30.591365830128886, 20.00260200578805, 11.58020861750488, -8.49435984009073, 13.619330045874499, 21.355377823460458, -17.154710708494008, 11.017617007917785, 12.570276116311787, -5.67156394463424, 9.41932810368589, 12.505901876730915, 31.756153074795613, -21.743328066146724, 0.7921433595563743, -15.515239770107357, 6.869918621776785, -11.494396916177964, 8.11408329235615, -1.306084275912525, 11.64636333054139, -9.272785683069914, -1.5010147841781174, -4.289146846594747, 6.356619834967319, -1.8257329691289552, -12.281436319898422, 8.736543766461146, -2.4212124969293303, -2.996749100876027, -7.351645212273112, -7.673671029015495, -0.1174235984474521, 0.6546094236283793, 9.130058930783616, -1.0105393211578777, 6.480693927585847, -7.928213159709067, -0.115931891856909, -3.1882186678732225, 1.6202220306430561, -2.4197649292079877, 7.132517491487052, -4.2232763041721135, 2.6541404997097935, 6.1710455290790875, -4.151165304774768, 4.174127061777426, -3.0105771816961164, -4.7457002329064615, -4.066332901691378, -4.267053228793442, 5.793741811005358, -1.5774090898718554, 0.4992101764059482, -2.727724223387951, 0.709212760101849, 2.657898269528855, 9.130685313874622, 1.5023808678381907, -2.0814421644686187, -0.9497199510821095, -0.02457172280879938, -6.964924997495159, 4.736271494228836, 2.8269514984677926, 0.6126108528687588, 0.5993396958361128]",-5.297714285714285,-3.4170000000000003,-5.47,-3.76,1.0,CB,DIO,100.0,PEDOT:PSS,PFN-Br,11.4,11.4,1.01,15.9,71.0