DA_mordred_pca,HOMO_D_eV,LUMO_D_eV,HOMO_A_eV,LUMO_A_eV,D_A_ratio_m_m,solvent,solvent_additive,annealing_temperature,hole_contact_layer,electron_contact_layer,PCE_percent,calc_PCE_percent,Voc_V,Jsc_mA_cm_pow_neg2,FF_percent
"[-97646.34332091674, -117638.09400747594, -8752.642441163658, 5396.501564458496, -2504.647233239907, 2663.4298950644607, -313.10818828471656, -5995.645181580286, 1475.1886173719145, 405.53475781267616, -213.68719388843874, 483.2513202882251, -1163.7124016702473, -1057.7554084942744, 2515.379019767968, -1037.2885995254535, -169.7123249680186, -262.5012039574251, 618.8134413870396, -436.4064014824818, -98.21254433265139, 448.5939727154209, -117.6773301085235, -302.92213806456857, -356.9948174250116, -278.47887101845424, 498.29414842045577, 240.81363889385585, 71.6506461585895, 100.48878933312969, -81.56730217598742, -88.66448993750836, 284.70089347378905, 345.40585334263983, -245.36846289614527, 166.32176945974794, -59.172262224607934, 122.28854157057889, 91.6071596507268, 52.170022888510985, -24.203925754638988, 97.61972515291703, 10.803907173144239, -94.68404460541745, 131.09524044839318, 137.306945349439, -17.500337371323084, -38.49764573862436, 54.439217431604064, 25.870270942905705, -0.358325626925847, 29.533647794478576, -63.79501140419961, 48.24771977406918, 6.848089729075689, -5.285675890822574, -26.42570948015408, -8.502460664733086, 23.603606245244976, -6.180023300673497, -25.82891461792116, 9.046023122736685, -3.785659177819241, -7.880566136136707, -2.1882720953156998, -10.378413710369692, -11.801983316388657, -14.508564419271746, -2.5775369225871856, -16.071505162846748, 4.0868477332358, -16.688286650642382, 2.5572972033947483, -1.6451933221957873, -2.4847325690484965, -7.402965437818544, -0.94969951152558, -5.709357261995405, -1.4257669310953545, -7.818104815594353, 0.4562270711519716, -6.030299175806903, 0.3348024614836902, 1.727555106156288, -1.9682413085566566, 5.660031279108466, -2.8505246457248776, -3.464243439789726, 0.7467395369602716, -1.1858631395171777, 0.9507910928873287, -1.2636409443719572, 2.651359968714715, 1.7916939760292507, 3.5005874293130326, 4.620992618008728, -1.5640096986593433, 0.27151613576404543, 1.5236309157784262, 0.28937432608466235, -2.7138963289672233, -0.3420101362282937, -0.0558620715274003, -0.38710278818157917, -0.35170767489857635, 0.3077098894341148, -1.2486091350463013, -1.0657316547299072, -0.4196818505340847, -1.2081573512752453, -0.5739272006713989, -0.006109098185092421, -1.4835404779396564, -1.2312170274895742, -0.21129975098268972, 0.39433998989824204, -0.11760519174930906, 0.07121154631159943, -0.44095525922497103, 0.3750770564822963, 0.43331487090906506, -0.13715505820034224, 0.05215252792291736, -0.06781088512105171, 0.2981846522480822, -0.33003545845294724, -0.012788200552364515, -0.07772659220689349, -78075.75498049763, -118076.08473484853, 29104.532004168006, 5875.865852564966, 255.950698233175, -4956.403532616757, -3027.9094332783316, 1273.2577252050596, -1049.971458435921, 1995.1789386060111, -1313.3872106504723, 1292.559170965022, 972.8957767794859, 784.6624309433921, -635.9853464572047, -319.7423426702585, -396.1510203219459, -979.440588156704, 151.9357885127547, -35.57181073200354, 449.4593451218175, 346.85737542543643, -64.12635823713845, 471.69748207109683, 294.3370941124963, -113.39381493561939, -172.5796318691854, 114.24584665150444, -310.738396535877, 167.6978832447772, 6.4487660481338835, -45.71432569730837, 15.579644449015348, 3.8733078808595565, 41.58011635575022, 56.86963956910492, -149.06170015930672, -61.53472710732615, -9.366638080205806, 8.358146311447513, -92.06730499485258, -18.455432391260274, -49.57572780911744, -45.404250772040626, -23.67546084936984, 15.78705407761609, -0.7632253371750721, -14.0593462537461, -19.318485824059337, 5.16045548467855, 41.50887220661331, -12.15858379129594, -7.0334706014246535, 9.749726314369497, -4.276975652104284, 7.5066063842321, 19.14931500205566, 8.773896797277246, -11.088011843227491, 3.300670154050181, -16.08565089039115, 13.484276326125425, -2.0107864835974567, 0.8012823668953928, 7.36382837987577, -7.2060654187509865, 5.880839492776145, 11.902173832678194, -2.454020234662604, 5.289233921891054, 2.206318272334272, 0.8642288292509761, -0.17810255228403093, 4.880697092070115, 2.997768592853223, 5.078935950230772, 0.6615404580787612, -2.4321842671258906, -4.361537966269651, -5.067406294236363, -6.098875653620397, 2.0296017309619288, -3.7205254000452044, 1.7475522821006564, -2.0587388597965344, 1.113812700578734, 0.5315267588976909, -0.2703264021863703, 0.46103154307434835, -3.745050987293194, 2.406372819014834, 3.5899374940757554, -0.8529015304823417, 2.395492753664314, 1.7879954839569479, -2.365605494254332, -1.5863758479521124, 0.5247400502301076, -0.5292227031958863, -1.3624797784297584, 2.2242092796714488, -0.1594438274686425, -0.9464697326852517, 0.8234417640056053, -0.06555679187322028, 2.489740042780774, -0.7789374882895501, -1.5527305588123959, -0.46271835412552065, 1.4434225530875224, -0.2894129773833498, 1.1536332976632835, 1.3103310181282097, 0.014127842884548159, -0.19543101801733798, -0.2770240634948351, 0.23906534534624768, 0.130547100854848, -0.3414848787346543, 0.05457140571088814, -0.5438122106710002, 0.20465763047534935, 0.19994977123417712, -0.5135255547112365, -0.5718140372388518, 0.41317084016889893, -0.1375299881973291, -0.004673916868647154]",-5.313333333333333,-3.1,-5.706,-4.002666666666667,1.0,CF,_,25.0,MoOx,ZnO,6.28,5.9,0.814,11.31,64.1
"[676972.8830941557, 34306.00869644919, -9955.304257564127, -137.00417933108656, 1199.4824666019913, -1838.2567555621172, -8138.155274492484, -4077.3555521435337, -430.73262144549585, 2215.4591602996766, 1816.799893004049, -2442.510069589338, 697.4105760095372, 524.2040115803729, -723.4315471516912, -451.1754360086667, -724.3318654267204, 841.1226861839684, 192.10487869142696, 465.26095269371126, 453.23213958133084, -331.4290364080774, -203.45173752235678, 165.90194091067218, 648.7153528087033, 376.0009600756332, 333.5292516184344, -51.40434249264456, 47.812566492618146, 378.8175174866087, 271.9889842870722, 11.046817395275596, 24.36675300958555, -261.5524845885633, -114.34009308141628, -21.309529863149635, -7.873404293038021, 244.09480644455374, 109.13678764576929, -16.819047640186767, 98.3962513925638, -38.04812342291271, -24.11086067715752, 11.330128568766014, -34.370533133100395, -9.281293927775053, 13.702299207862097, -70.62281157944622, -119.82262489253155, 97.24020556526716, -23.804875849089242, -2.131637364277168, 40.61884249324439, -6.748779501117511, 2.7160433890725457, 33.78992212557517, 63.69618894932684, 4.9144943985389204, 6.11015883467806, 12.630985899544953, 24.12916907169237, 3.125420267681079, 23.138429721207245, 2.2143164829560362, -3.836407180161185, -2.297752069791386, -15.885814446386036, -12.099808406379907, -34.1775573508135, 5.1093425303804025, -6.4885728740519255, -13.901201226131889, 11.614483213050868, -21.298327613742906, -8.816939694530177, 10.104367572297342, -11.3043478045699, -17.360950502309304, -13.694347114684305, -10.377804029144897, 4.011644558472739, 7.801704388281358, 7.006378999667582, 1.0953694862680052, 20.083683324284664, 11.910712120736903, 8.29444646920838, -11.78210102379623, -1.745016456991097, 1.6017463830781296, 5.698632311727906, 6.11424138611109, 2.1675965639154846, -10.483758977240344, 9.904435460839887, 11.101452682108722, 5.537076868500337, 2.416337173554254, 2.4337921444728963, -6.228573847743138, -1.5146064703213398, -4.261842255197914, 3.888983619646133, -1.7009543473808861, -3.1788412063503997, -0.21231062362377884, -1.6008393618799701, -2.0613975288437487, -1.1154380362646208, 2.1352423593737466, -0.7039540055835687, -1.0655680227249498, 0.14275719408255405, 3.14559059001828, -1.1552546830589847, 0.562997613085372, -0.5288778927479818, 2.0424419358168144, 4.231816613562714, -1.5610789385514758, -0.5407565195868784, 2.2726755625621955, -0.2318314310875067, 0.8181399909442106, 1.0493497442345046, 0.8078866065423824, 2.1837400584854407, -1.1526047320247983, -78075.75498049763, -118076.08473484853, 29104.532004168006, 5875.865852564966, 255.950698233175, -4956.403532616757, -3027.9094332783316, 1273.2577252050596, -1049.971458435921, 1995.1789386060111, -1313.3872106504723, 1292.559170965022, 972.8957767794859, 784.6624309433921, -635.9853464572047, -319.7423426702585, -396.1510203219459, -979.440588156704, 151.9357885127547, -35.57181073200354, 449.4593451218175, 346.85737542543643, -64.12635823713845, 471.69748207109683, 294.3370941124963, -113.39381493561939, -172.5796318691854, 114.24584665150444, -310.738396535877, 167.6978832447772, 6.4487660481338835, -45.71432569730837, 15.579644449015348, 3.8733078808595565, 41.58011635575022, 56.86963956910492, -149.06170015930672, -61.53472710732615, -9.366638080205806, 8.358146311447513, -92.06730499485258, -18.455432391260274, -49.57572780911744, -45.404250772040626, -23.67546084936984, 15.78705407761609, -0.7632253371750721, -14.0593462537461, -19.318485824059337, 5.16045548467855, 41.50887220661331, -12.15858379129594, -7.0334706014246535, 9.749726314369497, -4.276975652104284, 7.5066063842321, 19.14931500205566, 8.773896797277246, -11.088011843227491, 3.300670154050181, -16.08565089039115, 13.484276326125425, -2.0107864835974567, 0.8012823668953928, 7.36382837987577, -7.2060654187509865, 5.880839492776145, 11.902173832678194, -2.454020234662604, 5.289233921891054, 2.206318272334272, 0.8642288292509761, -0.17810255228403093, 4.880697092070115, 2.997768592853223, 5.078935950230772, 0.6615404580787612, -2.4321842671258906, -4.361537966269651, -5.067406294236363, -6.098875653620397, 2.0296017309619288, -3.7205254000452044, 1.7475522821006564, -2.0587388597965344, 1.113812700578734, 0.5315267588976909, -0.2703264021863703, 0.46103154307434835, -3.745050987293194, 2.406372819014834, 3.5899374940757554, -0.8529015304823417, 2.395492753664314, 1.7879954839569479, -2.365605494254332, -1.5863758479521124, 0.5247400502301076, -0.5292227031958863, -1.3624797784297584, 2.2242092796714488, -0.1594438274686425, -0.9464697326852517, 0.8234417640056053, -0.06555679187322028, 2.489740042780774, -0.7789374882895501, -1.5527305588123959, -0.46271835412552065, 1.4434225530875224, -0.2894129773833498, 1.1536332976632835, 1.3103310181282097, 0.014127842884548159, -0.19543101801733798, -0.2770240634948351, 0.23906534534624768, 0.130547100854848, -0.3414848787346543, 0.05457140571088814, -0.5438122106710002, 0.20465763047534935, 0.19994977123417712, -0.5135255547112365, -0.5718140372388518, 0.41317084016889893, -0.1375299881973291, -0.004673916868647154]",-5.43,-3.58,-5.706,-4.002666666666667,1.0,CF,DIO,25.0,MoOx,ZnO,11.03,11.08,0.905,17.3,70.8
"[1556806.9266347245, -30940.28428257892, 4954.952543055359, 4933.036123574955, -9000.648361663028, 3535.2699796275992, 1771.5173906774617, -261.5267667207281, 145.6174674268127, -1388.4347475163397, -1250.9657925692454, 737.7217235819885, 1569.0997283262677, 269.5748189055412, -216.5877681700931, -1025.511609085459, -34.43255039909502, 412.692721438684, -568.4809624420872, -63.51032221005778, 182.6864345745073, -227.21036025926963, 124.5009155709431, -151.86183334306966, -324.3983710231026, 330.46471377709884, -37.14521749864275, -342.46868857073395, 353.8979247214027, -83.47002771833385, 26.448819469459245, -41.17584850554769, 74.16717971502129, -39.9967042178795, -51.61302232163439, 131.870680094369, -5.146185219514734, -61.958023176332034, -25.49933677056459, -19.823440830428467, -37.07659231206969, 50.53269505297257, 60.81032474887496, -17.478299042687468, -10.921026266289573, -15.46242069405838, 21.224262171276663, -10.365979084027252, -26.547469773979714, -14.55749986169161, 32.63856037492643, -5.300796138403605, -12.567380171509946, -18.026321271783303, 0.9637748752012456, 10.137094008677693, -16.879268944324625, -21.974428079554766, 17.790415865576676, -8.16299225942248, 10.834025912119685, -6.61257319893582, -2.038552912756643, -0.02937831788503331, 4.578668732676036, 4.75502903206614, -6.049868806122447, 7.97011171969708, -3.937197461007173, 7.179449604222324, -2.3900551810044988, -4.0551005945628305, -4.148203856747929, 2.45578043780408, 3.779957574863076, -3.1299587249195966, 4.607292104368753, -5.329918286036108, 2.9050488200647235, -0.8285467072434329, -0.773390841651576, -0.6981343421923896, -0.16845441274200823, -2.70452747707359, -1.577033363520428, 1.7690235257368272, 1.3425834248231778, -1.5888980984167773, 2.65264962015136, -1.4422553795720177, -0.21917509630273457, -0.4514500324068962, 0.8447259780374168, -0.10404504050284391, -0.8196461525052499, -0.6237973765390592, 0.5846798133225146, 0.5505393231679818, 0.4056094629866891, -0.0026852321266703782, 0.7583224108309494, -0.025079607569602702, 0.8587928174149937, 0.6903044448594358, -0.2199813330256397, 0.0979648093233294, 0.01659350296959161, -0.8580373092633101, 0.5459197620192526, 0.5645453112726919, -0.14604183537928606, -0.47275750716333675, 0.44805126279683183, -0.47250124719169406, -0.047359074261962064, -0.10412561233027517, -0.2620358013395965, -0.014017827572182284, -0.19949207682497416, -0.15230088409717446, -0.24134565339478797, 0.33523511758616564, 0.15182122981784274, 0.019908197065113598, 0.1016005168984293, 0.37560334887344027, -0.16709472932147662, -0.014963975552475972, -45677.15900523727, -35270.39884438008, 2267.207003198335, -1191.1392238864646, -9217.778145254324, -6487.442113541777, 1977.563990002017, -384.683440482459, 417.2958330191707, 1505.6034756644995, -1296.4796740764255, 1296.9782567511234, -1532.8032725051628, 763.5761959297247, -397.78094086763457, 121.24624369204128, -89.78381091020245, 213.19513876279552, -165.36046359811442, 640.92704626554, -401.7828241433446, 390.9911099113083, -57.551145006444244, -41.839503160858555, 15.936239072868943, -2.0392523861017935, 336.3201456281829, -73.38627863626829, 66.10159671873532, 182.3615296749582, 72.38177313651184, -90.25119327757986, -17.925027485815235, -108.47317896725087, -40.782806621426104, 10.81840844144535, -113.47085785014738, 7.401117080159565, -35.87903197304803, 48.44990333148476, -1.2911874372040941, 31.052766387021137, -46.407679059666634, -2.137969859856142, -8.047356738285956, 19.62222495451627, 47.331866174539606, -10.30983752828503, 32.73785066649522, 35.61237023526604, -21.833793443191905, 15.515250560628829, -18.228017196577966, 31.187530071127632, -10.47862606402154, 24.129944847637063, 17.559069110658655, 0.27976724230397565, -21.198569787673193, -10.267028017315965, -14.141963022314208, -0.23060674385638436, 0.048093751374977955, 12.486176328406522, -1.3179887624807236, -9.844332537017154, 8.507940653496625, 7.208818351665936, 0.35003177293489207, 3.336561774496886, -17.87136929788882, 3.298384632846501, 4.065275502652348, 0.5838928796595919, -1.8688169202853508, -2.0858179370859062, 10.805260776839916, -1.161361239751285, 0.5139664559664325, 9.610066827334734, -8.322993072753196, 6.596391468638075, -5.26976831783184, -10.136568595223316, -3.286119630005693, -2.776087843561424, 0.6610817112880003, -3.3081377910130456, -3.1606534414875025, -4.802264051421147, -0.42053504048542933, 1.04751435022348, -2.0027398840055426, -0.7128080735611775, -3.2859589176604125, 6.282427180425721, -0.292114027511964, -2.620706437027984, -1.2436108582999228, 0.7435183233386695, -1.791876414724893, 1.1640165499285202, 1.3502794798128557, 1.4153038271254221, -1.603968157755272, -2.355831056630759, 0.6105723770408265, -1.2417036287084446, 0.48372439921198307, 1.6135838193444663, -0.8807921694029766, -0.7780082661207643, -2.203099678033361, -2.6365658244923615, -0.2151468576146307, 0.8322523655868466, 0.1452918538606056, 1.8297486020755915, 0.9194536174975312, 0.284586599542326, -0.6484873785917946, -0.35718904216482295, 0.6501019583954584, 0.6185001916827755, -0.49165831969637885, -0.47251860344394636, -1.0720083892067827, -1.194027561403125]",-5.303333333333334,-3.151666666666667,-5.693333333333334,-3.866666666666666,1.0,CF,_,160.0,PEDOT:PSS,PDINO,6.95,6.91,0.88,13.7,57.3