DA_mordred_pca,HOMO_D_eV,LUMO_D_eV,HOMO_A_eV,LUMO_A_eV,D_A_ratio_m_m,solvent,solvent_additive,annealing_temperature,hole_contact_layer,electron_contact_layer,PCE_percent,calc_PCE_percent,Voc_V,Jsc_mA_cm_pow_neg2,FF_percent
"[-91850.1013944251, -31.94532944595926, -13640.129141491467, 5099.048943614727, 7326.240889669503, 7684.43407108446, 1997.5494770357122, -703.3152267823559, -259.7450865929389, 436.92345434869816, 490.3794333956324, 774.5753002521705, -2022.4679685424287, -1987.4701536078055, 108.76625203341355, 104.60182730990317, -80.8059801199831, 518.8170348412508, 513.1853716948877, 15.26626321363915, 43.50341270921257, 48.27983655028392, -100.29142569674494, 104.9057912250179, 170.11567291119, -24.50881973822078, -109.0522832507805, -274.67003359230495, -26.845011636912957, -64.75688205459811, -109.96502227843183, 117.72488586437522, -74.05234933802795, -19.742306629134646, 8.210886499264518, 58.15026930634001, -2.0910308578646912, 1.6565080023191499, -42.627578711504825, -14.392497199742639, -40.03801206359397, -2.7404110728584747, 5.1152424033258015, 10.93175834662733, 7.17062172142435, -7.336682401094352, 12.335195137325176, 1.743859757755739, -11.045090774637238, -10.383896287752744, -5.08769084339689, -1.678110450983886, 2.874319989313248, 8.705711012017357, 3.459574045624098, 2.1486389571342643, 9.187302519778862, -2.839489944206351, -2.925919531500101, -0.7335914346383561, 2.651432306082293, -5.925503426319116, 3.6301310383623395, -2.688416150576783, -0.39163237962848996, 1.5394059466154877, 2.074358943660581, 2.5781307902480597, -1.110172042208525, 2.0531010681186173, -2.0110712717998815, -0.0013305089881772147, -1.8456419639238901, 1.054484185975348, -1.7743173691334029, 0.3866410347867113, 0.030670132991629018, -0.9639888106917067, -0.8888866294011472, -2.742182332770623, 0.10855259722772992, -0.018251501121850477, 0.7404327978632788, 0.6317846317399689, -0.9425030761764255, 0.20914888242955687, 0.027004723583202883, -0.18326034248701006, -0.007922551392209709, 0.29072379791069425, 0.023583823241565938, 0.14167009797399643, 0.09081391715623832, 0.26569816221827436, -0.19113427062095623, -0.15117296545027425, 0.4906741400137331, -0.11675473747599963, 0.15657728436579532, 0.023369801669616663, 0.22976643765362015, -0.13851454714771427, 0.452387254805809, 0.39827537908958455, -0.08806860875073019, -0.20101392348631597, -0.11813223291226427, 0.3178059037360166, 0.2183440404572612, -0.21518659747810887, 0.05295137879517142, 0.24798228239579956, 0.10020542758738127, 0.28166189335245306, -0.18857723602523713, 0.0641165806306252, -0.24958460306900254, -0.06013028960270761, -0.10211807341153367, 0.10979007872791535, -0.06399760348199623, 0.08022730449348625, -0.16750723788688926, -0.05023146720217753, 0.04339181601633779, -0.03946373517263346, -0.04765661365284746, 0.015093753317343833, -23928.86823750879, 17923.326410560458, -26749.840615035988, 1644.4685613747051, 3391.072839914416, 1530.6912907813044, -2326.7370060673866, -2184.1885804307785, -980.4916160464622, -637.696071220465, 3159.591142621832, -1551.9784206170877, 916.3049983256662, 2326.9730837041743, -1216.822599560505, 124.73414548299104, 597.0734102793867, 244.5938677231909, -523.789460271158, 449.50402930299924, 1109.043658858178, -1072.1638765411622, -20.43622883520638, 39.49809546088821, -80.3681340399321, -647.8743799613709, -689.7165554590002, -297.1298091516362, -102.2748984586919, -232.92171349657096, -11.314244019996572, -72.50122520953677, -85.04378756897087, 155.4590771257953, 31.32208109818047, -150.09358247780332, 11.754287477665684, -182.28324884111802, 56.70951903499393, 126.73781368714205, 134.55857207385128, 189.24441815700365, 31.986712894747583, 72.91289906416193, 87.86514945528258, -70.79142139901816, 140.4697161930406, 22.65979536557579, -19.527257181119204, -45.34048215263508, 72.3007375133079, 75.87129342728811, 89.95327519679174, -65.36099116356807, -78.5726676156219, 63.68136731722757, 45.21238128037519, -36.87250088609092, -7.791042528196286, -35.87713487656802, 36.793429269875396, 2.709142735295231, -24.253598826644755, -67.35564554150068, 28.09276194414823, 6.478344564830801, -27.56980935275697, 47.60949252985097, 3.657046305085175, -11.320817435203296, -3.663875213905932, 34.421275155074355, -12.304838342729113, 34.301832157317705, -6.850425386267534, 15.270021593470176, 31.67206944792794, -19.552602190823826, 6.3348342833940485, 14.901225590639573, -14.928052349590885, -6.6693530343601495, -10.736998214894028, -12.724293087499639, 38.338880815706986, 16.515943052830053, 6.69480787191176, 43.82587831115781, 4.911237133985702, -18.05050228315435, -13.15353346207777, 17.02246287270295, -15.110648275776585, -10.167352373464382, -19.218335056820152, 9.574381258945937, 1.296492557443404, -12.27412866320486, -0.9144878814946257, 3.183374472609003, -11.106527379001937, 0.36012472918789773, -10.35077481887334, 6.140660515248116, 4.083210002188256, -13.633345766260245, -10.846973083252562, 0.3232175682010556, 1.7206543254028066, -0.2840600227405492, -3.7789099308409515, 6.102215431016791, 4.793129211419561, 2.328007412427649, -2.0791933821373805, -4.390209283991947, -9.656248565353891, 1.8931808577519007, 3.234893444279443, 0.792637348935898, -3.2043073574764755, 0.23343269166585712, 1.293851456027462, 1.7961556331250677, -2.7162840967763735, -1.2195823657738925, -0.05308513349512367, 1.974229505979654]",-5.43,-3.3200000000000003,-5.52,-3.98,0.667,CF,DIO,25.0,MoOx,ZnO,10.8,10.59,0.903,17.56,66.8
"[-91850.1013944251, -31.94532944595926, -13640.129141491467, 5099.048943614727, 7326.240889669503, 7684.43407108446, 1997.5494770357122, -703.3152267823559, -259.7450865929389, 436.92345434869816, 490.3794333956324, 774.5753002521705, -2022.4679685424287, -1987.4701536078055, 108.76625203341355, 104.60182730990317, -80.8059801199831, 518.8170348412508, 513.1853716948877, 15.26626321363915, 43.50341270921257, 48.27983655028392, -100.29142569674494, 104.9057912250179, 170.11567291119, -24.50881973822078, -109.0522832507805, -274.67003359230495, -26.845011636912957, -64.75688205459811, -109.96502227843183, 117.72488586437522, -74.05234933802795, -19.742306629134646, 8.210886499264518, 58.15026930634001, -2.0910308578646912, 1.6565080023191499, -42.627578711504825, -14.392497199742639, -40.03801206359397, -2.7404110728584747, 5.1152424033258015, 10.93175834662733, 7.17062172142435, -7.336682401094352, 12.335195137325176, 1.743859757755739, -11.045090774637238, -10.383896287752744, -5.08769084339689, -1.678110450983886, 2.874319989313248, 8.705711012017357, 3.459574045624098, 2.1486389571342643, 9.187302519778862, -2.839489944206351, -2.925919531500101, -0.7335914346383561, 2.651432306082293, -5.925503426319116, 3.6301310383623395, -2.688416150576783, -0.39163237962848996, 1.5394059466154877, 2.074358943660581, 2.5781307902480597, -1.110172042208525, 2.0531010681186173, -2.0110712717998815, -0.0013305089881772147, -1.8456419639238901, 1.054484185975348, -1.7743173691334029, 0.3866410347867113, 0.030670132991629018, -0.9639888106917067, -0.8888866294011472, -2.742182332770623, 0.10855259722772992, -0.018251501121850477, 0.7404327978632788, 0.6317846317399689, -0.9425030761764255, 0.20914888242955687, 0.027004723583202883, -0.18326034248701006, -0.007922551392209709, 0.29072379791069425, 0.023583823241565938, 0.14167009797399643, 0.09081391715623832, 0.26569816221827436, -0.19113427062095623, -0.15117296545027425, 0.4906741400137331, -0.11675473747599963, 0.15657728436579532, 0.023369801669616663, 0.22976643765362015, -0.13851454714771427, 0.452387254805809, 0.39827537908958455, -0.08806860875073019, -0.20101392348631597, -0.11813223291226427, 0.3178059037360166, 0.2183440404572612, -0.21518659747810887, 0.05295137879517142, 0.24798228239579956, 0.10020542758738127, 0.28166189335245306, -0.18857723602523713, 0.0641165806306252, -0.24958460306900254, -0.06013028960270761, -0.10211807341153367, 0.10979007872791535, -0.06399760348199623, 0.08022730449348625, -0.16750723788688926, -0.05023146720217753, 0.04339181601633779, -0.03946373517263346, -0.04765661365284746, 0.015093753317343833, -22545.762120730793, 22031.72662151218, -29247.944452301857, 509.0643183301845, 6415.049902805715, 2478.622551468298, -3213.039711547437, -2537.6094601809646, -808.8460982363038, -1049.4916251250702, 2151.1082268478763, -2000.734950822704, 1269.1955176054921, 2936.4525084337974, -1257.7974018064858, -885.2512037625421, 560.7160133761263, 250.25669778945394, -716.6970369913545, 234.05503268062668, 1143.9525795134377, -1383.5595689998938, 141.50002873623905, -174.3100850951509, -12.73711066522742, -628.2222384492298, -557.8285498082548, -538.9406446742493, -131.48997154677943, -163.4393827404447, -34.27491678493399, -94.53753618904034, -113.80187549955679, 223.16985328101464, 89.62440290107266, -96.94335692186436, -2.3298535261105826, -159.21900980426534, -5.423486760981666, 116.40690780978046, 111.05415971107541, 131.74210761300913, 9.319794805609718, 62.84201817545459, 93.7395087332278, -72.21110427388771, 64.51099656284003, 21.789742165496293, 53.12145262571069, -49.57265759781186, 68.10214791507889, 16.965350404790087, 1.715666533982656, -18.072178439678893, 3.390726466497455, 15.67428907356988, 19.90133843663905, -31.792103316960294, -16.876174397051685, -3.314888721487307, 3.054673201177721, -1.525315231220464, -14.893266105263208, -11.036432890292492, -2.0543324349529897, -16.77036346111876, 26.205963800597978, 10.792002757678215, 6.156508147704172, 13.505242164612142, -17.189175828855888, 19.79593862642384, -18.33731422133024, 24.66497759638246, 7.740538364789879, 16.40086991724433, 2.1319344500912774, -22.647481373637937, 15.858096636224666, -1.2860727222541541, 14.110738543118053, -7.692968638026521, -1.547798315377353, -0.8304282775393119, -5.857547625225742, -2.4686646417840414, 4.832203291300694, -12.923193848320725, 2.045989187494662, 3.875873360704233, 1.4766650764921856, -15.231527533210418, -6.847778605929815, -7.304197838430063, 1.7525122778369528, 2.3491362103275844, -0.6615152763853338, 9.371758821633955, 1.4917051170219742, 1.3143302392494078, 2.449829827404008, -5.612711066307673, -2.3911144764116354, -0.58198471715042, -6.066054294051316, 0.8925254126172799, -1.2255911787838603, -4.13983317506842, -2.267079341606392, 0.07646216396779693, -0.6089711334328616, 4.019949012569956, -5.926569320339915, 1.1935596601859828, 0.23483256712458234, -3.2421452894969995, 3.897664158167249, 0.02383067751942569, -2.676035564676406, 1.1347238250089084, -6.484278894436237, 3.890117776536696, -1.2010585483190042, 1.2379911555106187, 2.035103803883473, -0.48316109629364856, 1.214187167152165, -4.687165656152612]",-5.43,-3.3200000000000003,-5.52,-4.02,0.667,CF,DIO,25.0,MoOx,ZnO,11.5,11.23,0.857,19.44,67.4
"[-105631.73783275932, -74572.73247403272, 4329.753734020427, -2341.4243576849567, -5555.485216633641, -172.87819728700106, -798.6979620852667, 856.8010146047068, -1780.8026309386028, 649.5717848685752, 65.62447326392157, 388.30062073400836, -353.1258883999071, -137.697950651705, 31.52142203119479, -106.39355730444561, 81.98057692092414, -63.14138686604906, 66.8688432765725, -31.850017336689234, -14.562814664564094, -114.9941249091529, 19.27422754978045, 6.86920436049806, -13.362968611123335, -88.88424698589336, -9.680549433746734, -6.256532059762719, -19.287322586292646, 30.85187752382363, -0.060728621664203786, -1.7204165771485123, 18.096287928493183, -5.394264557244732, 40.036620565000476, -33.18107886987201, 2.1644049971745574, -3.5496157331860445, 9.702406188567533, -7.574832588501394, 9.796433451870143, 2.157829321761511, -3.1218789726135014, 6.6756247366353705, -7.1588684345745435, -6.697268175137552, -1.4052090508045652, -1.9646060063565116, -5.4204105421624575, 3.32941670679557, -3.8499636318233144, -4.615352531498566, -0.07975953344401887, 3.391194367932755, -4.106358123047258, 1.501503218822819, 0.9563824343184066, -2.6973013366915453, 0.8798263076499495, -1.2664639901547048, 1.2677471291641744, 0.13775840341868673, -2.0083004655011223, 2.233635675897844, -1.9092080674585787, 1.3281780039048954, 1.7708225501106938, 0.11723884380987926, -0.7217945654510771, 0.020674104910288094, 0.6321921645490995, -0.12750860712933587, -0.7324806057772388, 0.387690081710673, 0.5704773577055064, -0.5561048571084157, 0.13303415142318897, -0.39533728660630274, -0.19314666767595423, -0.17136554860633169, -0.3105600644218782, 0.09227497024608411, 0.3640581811437116, 0.12456153887661969, -0.4900314009409783, -0.2105542507325282, -0.11287961723428896, -0.4896110545300445, -0.2576249538547408, 0.020036158749878297, 0.19004174677945684, 0.43512588848888356, -0.15984926722186188, -0.03699898168409543, -0.16184812575650298, -0.018640178199959223, -0.06970965394751483, 0.02644608400954951, 0.4184249457529603, 0.06710147780425979, -0.1455202420919477, -0.027435290436191195, 0.055771972451445606, -0.09475802435058256, 0.24207868559446766, -0.05282116924259128, -0.1882724966860181, -0.05346045629421603, -0.10831494984240475, -0.0036262226167114164, -0.026380022030597416, 0.020118181288705017, 0.03512820925391846, 0.029024371883522804, -0.050134402663047695, 0.01941571781524054, 0.00820689833365762, 0.059280726425585684, -0.07718365209846922, -0.05673269250273272, 0.03097365628437565, 0.0007247489018915587, 0.008388415516517256, 0.019782146741892603, 0.003491413958400358, 0.005668303566913835, 0.008251200563019978, 0.015433351818131769, -23237.799915026968, 1309.210920449565, -32783.97691744237, 2246.7416416343167, 2311.8197588552553, 8316.254434006929, 1644.9955189148786, 4925.775614949535, -987.3439736250737, -3861.539801933129, -2774.473096828723, -1848.1321552782836, 2843.1719436072626, 776.2783085501283, -538.6886374340277, 1164.8733275248403, -1293.361353329724, 776.8115089286922, -469.93429223370595, 418.85145857854326, 579.8444176604287, 186.38344084310899, 235.5043714669195, 200.59632917195577, -46.844820061030475, 537.6622133422015, 316.39953150679963, -244.37750959529643, -200.45724946055202, 451.2593454659723, -216.50457735082398, -37.54445711503281, -141.29482296724888, -181.63496639527165, 188.75047870235866, 246.20487526935028, -26.3943432499441, -67.27526969395252, -86.29609413906581, -44.65983973022405, 72.14311130393689, -37.5307681111685, 51.29705772849914, -21.960182543832676, -62.77326881947628, 43.755047988951674, 48.13300743308631, 13.269478889993831, 13.565966841173143, -16.956844987302215, 50.43487617957298, 38.335886939579176, 15.044249218254187, -24.46419342468899, 20.1567271484047, -33.49403091060067, 31.579581802952845, -18.204612431947417, -13.551100764663488, 1.5466307344198214, 5.0844013721440415, -22.498598863228178, 27.974497691417728, -22.37916567919647, -14.23019549274018, -22.2394105292241, 19.231267144081514, -8.173092464450606, -1.5733110053640154, -10.908400342507578, 12.230314922883293, -14.689618961553164, -13.125194970355466, -9.281961217192448, -2.984671291879228, -10.814572458613547, 0.9405992048122682, 3.0580374312439003, -9.964268634151484, -5.996317057972391, 0.8830259873051688, 2.684398869412515, -8.132178759102922, -1.853096508626546, -0.6048171627366834, 0.25544871306181705, -10.240055223507241, -0.5134465747428738, -4.111941618702159, -2.434818212997204, -1.8557412108556735, 1.0089425663147793, 1.6992139810898657, 8.83097743284382, 0.44692408979850917, -1.02459510893362, 3.4610474274395306, -6.820620639463704, -0.3954392048835902, -2.010190151927336, -0.08543513889639298, 2.790149587832993, 1.3077990672214606, 0.2694367301343581, -3.5468118230078343, -7.476407099634857, 2.6612623111289424, 0.5691817039716991, 0.637557243186329, 2.1190525077131444, 1.8746942822164057, 2.299501250817701, 1.4510448273866636, -0.6665277999639656, -0.5259978027580812, 1.9807607760893786, -1.339687667715019, 2.7014532455195646, 0.18757587761249628, 1.302529364329441, 0.030022044191137187, -0.28941839429467553, -0.5312473552009616, 0.6106458685400025, -1.1981840063612008, 1.404540959458735, -0.943333872611694, 1.7468588808757115]",-5.204782608695651,-3.5391891891891896,-5.43,-4.0,0.588,CF,DPE,25.0,MoOx,ZnO,10.9,10.87,0.64,25.12,67.6