DA_mordred_pca,HOMO_D_eV,LUMO_D_eV,HOMO_A_eV,LUMO_A_eV,D_A_ratio_m_m,solvent,solvent_additive,annealing_temperature,hole_contact_layer,electron_contact_layer,PCE_percent,calc_PCE_percent,Voc_V,Jsc_mA_cm_pow_neg2,FF_percent
"[-40379.550777858196, 56004.069127593044, -10651.726564434246, -16787.81031422943, -4899.992121591016, -824.7283886742232, 3213.3355032253107, -1470.288885595245, 254.4377968009814, -1413.1146630484025, -524.4083602292874, -562.997720813155, -39.53950048797216, -237.61809197268883, 180.52903723581315, -190.73776488072147, -330.80306712396464, 99.72719854979664, -38.288725474699014, -15.193302786029136, -8.532246059522224, 145.04616544768794, 14.962058909511939, 123.04398183642466, 62.852427505583, -16.118058857090944, -46.56859833906233, -0.5575523560657274, -6.36498680353148, 16.394816676055783, 87.85016416866046, 16.04209532118321, 6.728058072640266, 31.819933043206213, 7.247524520540111, -16.595924642037062, 22.429503825143726, -34.30752403737112, -22.117717401179593, -42.53762441373334, 28.137558748772225, 2.22131123168802, 10.678808593591533, -14.694404223731631, 5.672198985063375, -1.6746084012166627, 3.5448396296069937, 4.439322415982939, 2.361717827741181, -7.79091708674293, -7.799464018746011, -0.06700113902227045, 6.275440131612939, 1.6816512012129223, 7.516755854741788, -1.3196602414838896, -1.599423863335157, 0.8523744266797966, 6.5919953227931884, -1.9930726417356155, 2.4730446865395805, -4.86740547502367, -1.6841737660247347, 1.6586533064853555, -0.8074568835944604, -3.2367193878033773, -2.1849438483133383, 0.21206456314353517, 3.0809245279681186, -0.19938566599949326, -1.7618285128175284, -0.05980224728117811, 2.9080797958751314, -0.2649007688640488, -1.4904110395030248, 0.9599817863349642, -2.062231625754352, 0.18250954513997886, 1.0587154103407115, -1.8898659848741381, 0.0828903647949275, 1.32594414559665, 0.358456040618492, -0.08392299601673514, -0.7357168466038431, 0.5569749078821111, 0.46639264895316324, 0.8106144831234943, 0.0036309183357334796, 1.615344045763857, -0.8126052081822834, 0.008561986029853585, -0.4374767812936806, -0.3645528964956295, 0.3530253133670438, 0.01993774228438383, 0.21970565142439824, 0.05638899422120147, 0.33798152978198814, 0.10894087739224645, -0.2310380143835129, 0.5971144474169652, -0.0568340402989147, -0.14432609544563313, 0.09196812189175685, -0.12801448064831078, 0.08893783919220155, 0.08315346312763339, 0.2048785099106445, -0.21622713001348914, 0.12256202799790294, 0.10820379300091787, 0.1865751938394018, -0.1645796925672459, 0.09908524542788655, -0.09534185566811182, 0.05572017504187965, 0.08364897859544218, 0.04476089133255723, -0.03247571883968092, 0.01741547505732921, -0.03798876088742631, -0.039233448534753634, -0.00874733060879862, 0.018554743515469596, 0.022867216035734828, 0.052540313824602336, -0.04783066929916302, -4094.8745727084256, -5841.406674396516, -10562.560966293047, -7811.933406169921, -5024.631111092916, -200.61342020197606, -2352.707308809329, -501.3399561209699, 2812.857295398472, -753.0131249640338, 720.6841990036403, -985.2349594678473, 592.9438140570662, 31.165770537760835, -320.1824486228956, -954.7204827908248, 2315.6127159239013, 766.5346463928563, 1365.9683993651124, -599.186180282167, -258.1799285257115, -219.13380191043547, -443.82568858118947, 215.15909537212747, 129.39695826404994, -507.62537457184646, -14.520595221687046, 442.03972913203313, 277.2364800703972, -393.89362946838804, 35.21488560507256, -12.42989525061325, -124.92750681369533, 78.41480431325145, -121.41476107900505, -375.72457899319505, 411.134521476377, -16.92530137173049, 181.92355748798573, 27.54757629564419, 42.798751290120606, -234.60209632370353, -105.37086088460836, 59.38449772203408, 57.70921170807937, -11.333769843755237, 184.5925524769891, -95.49457920806577, 38.56274654576659, -19.389312379079314, 65.33060952259345, 59.72406648950808, 39.00822273387224, 11.418068435006873, 58.40402736462681, 38.65930052924129, -66.10672497999968, -6.641620383090061, 45.362598140005495, -11.639692348000139, -28.924983172214212, -4.00943640197971, 16.633224492665892, 2.3652399125424086, -21.427857569228987, -11.466807034013522, 21.70230567177297, 0.6638366318609732, -14.438744275763069, -3.021574309108013, -0.1924030830586645, 12.692523858771406, 6.322272092145617, -8.43170530047426, 7.071309331500811, 20.15054872367994, 3.193418311290059, -6.429158617934221, 2.7011494493738084, -16.07135607105071, 3.5972390486143206, 5.592051049724197, 1.7667746529299007, 4.7480905566564715, -9.751582408415315, 10.085975375176853, -18.45993784089185, -3.035033272628171, 3.7763361823219705, -11.430550135362285, -2.387291217850322, -1.4245844951437654, 8.118808025424306, -0.06044571949132305, 2.833810894298164, 6.450941733646695, -11.131522417393398, -6.2263824446229785, -1.8435581204875535, -0.17566740671849956, 5.799692545564223, 6.428673935718372, -6.865355321596506, -7.195881332718126, 5.783005776438448, -1.0622915377332012, -6.221237131732892, -5.371671523667789, 0.1901444012548706, 4.850916221845919, 4.47122542308716, 4.530606282118296, -3.5936048280656205, -0.25811842077456904, -2.9612080522189492, 4.070877898013234, -1.893089018189662, -1.7635296846622222, -1.8726129954705373, -3.551077852068407, -1.2596840839076433, 2.7138899197433655, -5.141353059437748, -5.562974750538424, 4.36927353736529, 1.27059205484457, 0.21184343641355063, 0.04929873601999457]",-5.353333333333333,-3.4318181818181825,-5.46,-3.97,0.833,CF,_,160.0,PEDOT:PSS,PDINO,7.34,7.42,0.89,14.47,57.64
"[-44312.586939366774, 7119.469718032697, 318.56640679605465, -6104.415289087984, -8726.505697456816, 1171.9347713790862, 12251.440035026173, 9154.598170919478, 9121.580281635523, 956.0014611294807, 2499.0177246046615, 2685.8323456653, -2649.2756441716706, 5710.100410526832, 4104.079165075125, 3498.6148320944358, -1461.7274875404837, -2213.757435362049, 643.2143671852763, -1912.4666097703073, 1070.4283154680584, -74.59784720388069, -361.20636365878704, 382.99519480115873, -1144.0137068625188, 1011.1686497891201, 30.303446229124553, -965.5957685749165, -432.54189661702907, 367.3849023796072, -92.87938478042345, -309.03188288534733, -111.53107423442164, 127.64972025910859, 193.1271085227841, -47.98127481971398, 619.9279100248897, -159.84315828266895, -51.46300978473338, 285.77094283008853, -198.27646306179355, 97.99548644265869, -82.53045308369946, 46.082764705316535, 47.2107480916447, -71.11023683190794, -34.07171102125989, -4.8228518622137315, -15.86705329713531, 134.25451675911734, 87.70580805590558, 9.97825816521743, 23.768142654971783, 8.469040044294305, 1.8009894534844273, -8.259253256919433, 61.90639703612715, -25.37081825501938, -1.2704700436207013, -13.370612225790712, 30.899866840812486, 23.365141221363167, 22.05546562581806, -0.35155000128412084, -14.36712932596578, -4.903666312912363, -10.216877562765083, 11.914178424945863, -4.443927687057114, -15.486480350222621, 10.456339101511272, 16.77537879014988, 7.3578190653226105, 2.0580548527325746, -14.85417895572438, -4.154432819347608, 1.5643596839671847, -3.6191768173045467, -11.084292730957845, -14.185066129046742, -4.091609040290827, -1.7671840633843034, 5.004701958551426, 3.9940996863700295, -2.103455476349989, 4.8395360543864765, 10.540734576631747, -1.1451860068509685, 5.642738550164835, -4.768579271535191, -0.8991831769044634, -2.397403752542119, -5.5045174641563275, -1.034370623533385, -4.789974911924446, -0.047022406745786505, 0.20551822475925707, -0.40384233644233425, -1.2237390231130902, -1.6573998635705167, 0.30397596182097963, -0.8095211324101075, -3.757288611168576, -0.5088832390675533, -1.516491730712136, 1.0876524911163798, 1.0806053301942535, 1.4514791308645068, -0.8801508594299596, -2.5463319296014557, -0.6352855662815022, -1.0933477970243128, 0.03314637409219756, -0.6135419129341315, -0.9833349245697782, -0.41784681678070146, -0.7279911205182934, 1.4925866286892386, -0.022447060760322657, -0.07184808457419502, 0.9934947879396283, -0.0802547492573189, -0.26764070957948416, -0.2358342730978713, 0.45411935864366004, 0.3876395219580444, 0.20068165507176738, -0.5813610621967713, -39240.57973318528, 20500.70181160768, -742.7372891537739, 23239.986168659925, -1647.5053877763694, -1482.2879929554504, -6600.964661204996, 546.251203042571, -637.1841402380221, -1310.7812883587976, 3386.685079883572, 1427.9643059346781, -674.1201629752072, -1243.5852171420077, -816.2548454178329, 291.2043899971375, 287.9526615159073, -1154.2737005585755, -375.97659435008075, 35.18982560844995, -517.3588424672718, -281.3314781065094, 379.43550474139863, -655.8684483312554, 77.3163868857684, 31.441016053252326, 152.82345306039068, -227.42020407311205, 211.77085253675156, 230.23656343019672, 49.030211448542836, -171.11107740328458, -20.433426773430142, 210.55990352170073, -12.807480532862229, -22.93984600593121, 39.33791194475964, 2.1576417673450123, 63.32365166602841, -90.83696860940627, 112.29918494598897, 27.75557737246524, -75.16547282769282, -27.491732512033913, -36.669753046768164, 37.54841621139991, -37.91964189385969, 16.455332480637736, 15.688236181382791, -14.061540930709388, -4.1875202397122155, 26.012441986223543, 15.471901190516064, 16.880797607156808, -0.1697433152896224, -12.999865635973244, 30.127025242178362, -2.6730881608369828, 11.87733929539489, -11.882349106357509, -10.579334589713584, -5.009180789475746, -0.12125708729404039, -10.06799072017468, -7.708771478670442, -1.3579479139590624, 1.600211600058234, 0.9315817087016853, 7.92882408138706, 10.478484008662893, -5.556939493567031, -4.816810680988548, 0.7704379529638956, -1.3305876016983085, 3.011655355842536, -5.27229311307282, -2.8528541862897363, -0.4297894488262264, 0.5101130029746237, -3.4444092399498594, -2.0524762321975465, -1.4237299686960991, -4.538966235950822, 1.5545320542809478, 0.5156248968527706, -0.34327771638680815, -2.6540235596619155, -1.5179146335051037, -5.022119686868136, -0.3196196564359175, -3.4371138619644093, -1.0631351140103966, -0.13371239944401836, -2.5862962782580503, 2.229215623816513, 1.5320306194811915, -2.079984091724034, -0.36729773024961965, 0.4466187282066769, -2.7360369166024867, -0.705377415767428, 1.6158572321493354, -0.0700267283282986, -0.8949435680587224, 0.45140351343523655, 0.7048737120320752, 1.072065362578663, -0.2479777070139102, 0.03994688446205075, -0.9552189223492409, 0.5796904401723353, 0.23128578974454506, -0.1833634052416393, -0.19967364138103427, 0.1469681666517184, -0.41026326371600597, 0.031261319947089916, -0.1632368826522086, -0.013832586558201854, 0.1215994183610043, 0.7937531569094052, 0.03517915608394728, 0.34526686929627104, 0.02732240915219908, 0.17256062077923673, 0.05345929406843819, 0.28149715588719815, -0.17873941970506912]",-5.37,-2.91,-5.526666666666667,-3.8515384615384622,0.667,CF,_,150.0,PEDOT:PSS,PDINO,11.62,11.62,0.92,18.09,69.82
"[-40379.550777858196, 56004.069127593044, -10651.726564434246, -16787.81031422943, -4899.992121591016, -824.7283886742232, 3213.3355032253107, -1470.288885595245, 254.4377968009814, -1413.1146630484025, -524.4083602292874, -562.997720813155, -39.53950048797216, -237.61809197268883, 180.52903723581315, -190.73776488072147, -330.80306712396464, 99.72719854979664, -38.288725474699014, -15.193302786029136, -8.532246059522224, 145.04616544768794, 14.962058909511939, 123.04398183642466, 62.852427505583, -16.118058857090944, -46.56859833906233, -0.5575523560657274, -6.36498680353148, 16.394816676055783, 87.85016416866046, 16.04209532118321, 6.728058072640266, 31.819933043206213, 7.247524520540111, -16.595924642037062, 22.429503825143726, -34.30752403737112, -22.117717401179593, -42.53762441373334, 28.137558748772225, 2.22131123168802, 10.678808593591533, -14.694404223731631, 5.672198985063375, -1.6746084012166627, 3.5448396296069937, 4.439322415982939, 2.361717827741181, -7.79091708674293, -7.799464018746011, -0.06700113902227045, 6.275440131612939, 1.6816512012129223, 7.516755854741788, -1.3196602414838896, -1.599423863335157, 0.8523744266797966, 6.5919953227931884, -1.9930726417356155, 2.4730446865395805, -4.86740547502367, -1.6841737660247347, 1.6586533064853555, -0.8074568835944604, -3.2367193878033773, -2.1849438483133383, 0.21206456314353517, 3.0809245279681186, -0.19938566599949326, -1.7618285128175284, -0.05980224728117811, 2.9080797958751314, -0.2649007688640488, -1.4904110395030248, 0.9599817863349642, -2.062231625754352, 0.18250954513997886, 1.0587154103407115, -1.8898659848741381, 0.0828903647949275, 1.32594414559665, 0.358456040618492, -0.08392299601673514, -0.7357168466038431, 0.5569749078821111, 0.46639264895316324, 0.8106144831234943, 0.0036309183357334796, 1.615344045763857, -0.8126052081822834, 0.008561986029853585, -0.4374767812936806, -0.3645528964956295, 0.3530253133670438, 0.01993774228438383, 0.21970565142439824, 0.05638899422120147, 0.33798152978198814, 0.10894087739224645, -0.2310380143835129, 0.5971144474169652, -0.0568340402989147, -0.14432609544563313, 0.09196812189175685, -0.12801448064831078, 0.08893783919220155, 0.08315346312763339, 0.2048785099106445, -0.21622713001348914, 0.12256202799790294, 0.10820379300091787, 0.1865751938394018, -0.1645796925672459, 0.09908524542788655, -0.09534185566811182, 0.05572017504187965, 0.08364897859544218, 0.04476089133255723, -0.03247571883968092, 0.01741547505732921, -0.03798876088742631, -0.039233448534753634, -0.00874733060879862, 0.018554743515469596, 0.022867216035734828, 0.052540313824602336, -0.04783066929916302, -39240.57973318528, 20500.70181160768, -742.7372891537739, 23239.986168659925, -1647.5053877763694, -1482.2879929554504, -6600.964661204996, 546.251203042571, -637.1841402380221, -1310.7812883587976, 3386.685079883572, 1427.9643059346781, -674.1201629752072, -1243.5852171420077, -816.2548454178329, 291.2043899971375, 287.9526615159073, -1154.2737005585755, -375.97659435008075, 35.18982560844995, -517.3588424672718, -281.3314781065094, 379.43550474139863, -655.8684483312554, 77.3163868857684, 31.441016053252326, 152.82345306039068, -227.42020407311205, 211.77085253675156, 230.23656343019672, 49.030211448542836, -171.11107740328458, -20.433426773430142, 210.55990352170073, -12.807480532862229, -22.93984600593121, 39.33791194475964, 2.1576417673450123, 63.32365166602841, -90.83696860940627, 112.29918494598897, 27.75557737246524, -75.16547282769282, -27.491732512033913, -36.669753046768164, 37.54841621139991, -37.91964189385969, 16.455332480637736, 15.688236181382791, -14.061540930709388, -4.1875202397122155, 26.012441986223543, 15.471901190516064, 16.880797607156808, -0.1697433152896224, -12.999865635973244, 30.127025242178362, -2.6730881608369828, 11.87733929539489, -11.882349106357509, -10.579334589713584, -5.009180789475746, -0.12125708729404039, -10.06799072017468, -7.708771478670442, -1.3579479139590624, 1.600211600058234, 0.9315817087016853, 7.92882408138706, 10.478484008662893, -5.556939493567031, -4.816810680988548, 0.7704379529638956, -1.3305876016983085, 3.011655355842536, -5.27229311307282, -2.8528541862897363, -0.4297894488262264, 0.5101130029746237, -3.4444092399498594, -2.0524762321975465, -1.4237299686960991, -4.538966235950822, 1.5545320542809478, 0.5156248968527706, -0.34327771638680815, -2.6540235596619155, -1.5179146335051037, -5.022119686868136, -0.3196196564359175, -3.4371138619644093, -1.0631351140103966, -0.13371239944401836, -2.5862962782580503, 2.229215623816513, 1.5320306194811915, -2.079984091724034, -0.36729773024961965, 0.4466187282066769, -2.7360369166024867, -0.705377415767428, 1.6158572321493354, -0.0700267283282986, -0.8949435680587224, 0.45140351343523655, 0.7048737120320752, 1.072065362578663, -0.2479777070139102, 0.03994688446205075, -0.9552189223492409, 0.5796904401723353, 0.23128578974454506, -0.1833634052416393, -0.19967364138103427, 0.1469681666517184, -0.41026326371600597, 0.031261319947089916, -0.1632368826522086, -0.013832586558201854, 0.1215994183610043, 0.7937531569094052, 0.03517915608394728, 0.34526686929627104, 0.02732240915219908, 0.17256062077923673, 0.05345929406843819, 0.28149715588719815, -0.17873941970506912]",-5.353333333333333,-3.4318181818181825,-5.526666666666667,-3.8515384615384622,0.667,CF,_,150.0,PEDOT:PSS,PDINO,12.05,12.05,0.944,18.09,70.59