DA_mordred_pca,HOMO_D_eV,LUMO_D_eV,HOMO_A_eV,LUMO_A_eV,D_A_ratio_m_m,solvent,solvent_additive,annealing_temperature,hole_contact_layer,electron_contact_layer,PCE_percent,calc_PCE_percent,Voc_V,Jsc_mA_cm_pow_neg2,FF_percent
"[-113112.0221877825, -128040.17814553897, -10298.628999373548, 3432.733628547574, 8973.419698991387, -3439.282848851566, 3781.954798850272, -829.6176407827634, 1085.3982123472952, 550.4456547111608, -435.8864607518108, -710.2243801656157, 1326.1626490602139, 8.665554309145136, -418.74269954022566, 187.45956881819745, 121.28409340748124, -4.298184849417794, 8.490690881116162, 52.913455571291934, 87.8658439058351, 43.51987937221628, 44.34062644746041, -49.48592701393579, 33.90433203557939, 4.676946288832141, -8.072828067571379, 10.567251849407967, -111.51899092106515, 28.525996512887673, 100.06773607887192, 12.062822784303606, -5.263110840715456, 7.512175011148145, 1.3785293027879106, 16.635643035520957, 4.039764278740535, -24.845372606161163, -22.45639579757742, 5.826741130519196, -0.7521496402381729, 12.53019855668316, -4.796028348520849, -8.538919188446641, 0.6386535221417375, 0.28586521885279126, 3.6235228381428186, -2.3848029517721017, -2.8923507347754054, 4.7855121583618825, 4.964071798130007, -3.784341510985911, 2.078751210970445, -0.29178313050513793, -1.7735955457794503, -3.129511596315538, 1.0268372421283374, -6.771806284949676, -0.36009360913607225, -0.2885819863777215, 0.7901843974181446, -4.113908987537911, -1.4204402500640185, -1.319936024894119, 0.9505850971635255, 0.3919987624149357, -1.1826527991339901, 0.25278811590131767, -0.10244841765984347, -0.06963895121972996, -0.3177515931384107, -0.252237779743524, 0.3418882282524356, -0.025334246562977114, 0.6085323469659869, -0.08140436503745718, -0.052060392777136144, -0.37716527456960947, 0.622708357653387, 0.7512702289248097, -0.18664277121496298, -0.4686124080250025, 0.11033475969473727, -0.17570642990008523, -0.01191175014561452, -0.5637582343619982, -0.15994847323332984, -0.4211786166219582, -0.07485781839410688, -0.23597185487598793, -0.10873839156025156, -0.12014790117991936, 0.17783780040360142, -0.16002430739202889, -0.04013287387633824, -0.3283820317790074, -0.14723447861628003, -0.013208994816466202, 0.10783506653254449, 0.02054895260968026, 0.0038103610396120757, -0.03785315965532643, -0.013199411282162288, -0.07276953001481701, 0.05509625405750462, -0.04625759139159413, 0.04027683863420606, -0.0025516021335834083, 0.03001469427361414, 0.09321320428330893, 0.06018147875735025, -0.03890482007976459, 0.055154607055641236, 0.0315222130303745, -0.0697597739780349, -0.024930229612809995, -0.01225032381139357, 0.015968003371716222, 0.02773925890596729, 0.0066110138903283655, -0.025875302652229593, 0.0026188898131849214, -0.006174358951955394, 0.01351968740192433, -0.0167749891402309, 0.027379330332195195, -0.004039592793215974, -0.00318420795111507, -59504.252971087226, -129853.00441284769, 8132.895332876863, -29895.394528668396, 4254.678932096547, 4256.934955692532, -806.9372053554434, 2983.4782911619295, 2198.0021005328017, -171.28638431505374, 2018.0088432827276, -1837.7047224366636, -472.3689917681759, 2190.607478704208, 120.99910861077268, -862.0686998894632, 2157.305509075868, -277.92192371560054, -1284.7824438705018, 251.28475108747813, -556.747864859156, 7.514520143219784, -822.5765467830852, 407.45369355941904, -221.79151625788757, 632.537636188454, -1293.9192685079395, -344.2572021802272, 288.42784526447446, 227.70994155159292, 1223.3394232551946, -486.10172444232376, 46.68866519947528, -974.79544251947, 133.6389448163925, 12.390196574197212, -32.27705922747069, -419.48184249529817, 55.33931223211202, -93.43594028821454, 336.9286781815161, 48.59347252245465, -212.51587793908607, -153.81476917940483, 100.98544005040179, -155.57356324181694, -66.7870961418899, 170.86873341767281, 22.0190925887444, 30.784950498721372, -25.394509967600243, 67.93927368569044, -88.36565337341557, -33.876269487097105, 77.83967200002812, -67.67796408027469, -0.40352514563222996, 113.30100625607754, -7.835130555122305, 18.49311157615722, -1.089914498722834, -52.74280621430383, 72.27520918761371, -6.7918142281125355, -9.416490474968725, 46.27902153053211, -69.40296398190436, 20.388614360722077, 38.49928762206373, 6.501200565103012, -1.9921080019269013, -11.749252971699649, -8.783844678902227, -9.847223747416006, -20.37874213577534, -5.24382406107874, -3.679710431201549, 21.23386645026141, 7.898657983581579, -20.69262613077305, 6.799493809039225, 7.719356937077336, -11.835025449181806, -5.03071224203407, 0.03104440977819678, 19.580306555319822, 4.520347085080051, 11.69113681370981, -5.644066910861076, 3.5718355489638043, 21.06973425228354, -24.96539410491554, -3.635725069957516, 4.168218585034957, -0.01597849930207218, -0.33109955270908387, -13.035537442234048, 8.5318810262593, -1.723840585442554, 0.05670772745320107, -3.693087823599585, 13.174976861659365, 2.656896776042619, 4.248191609876849, -7.9323807222286575, -0.5193533842870082, 2.255872233266066, -5.948396805263933, -0.8733013978612121, 5.01179365713088, -8.616400060118089, -4.963477668128277, -2.672668506234203, 2.7386653578332627, -3.388543546798957, 4.843412056408255, 4.977576099064983, -1.2702471393142316, -0.5221311888769122, 1.4962949437781248, -3.176275872247935, -4.752040087175086, 1.1235388865293752, -0.6507303452877675, -5.279881060318779, 5.397601389197474, 1.4036795619069977, 2.5202625921733492]",-5.057777777777777,-2.989444444444445,-6.14,-4.21,1.0,CB,_,25.0,PEDOT:PSS,LiF,0.8,0.74,0.58,3.25,39.0
"[-91850.1013944251, -31.94532944595926, -13640.129141491467, 5099.048943614727, 7326.240889669503, 7684.43407108446, 1997.5494770357122, -703.3152267823559, -259.7450865929389, 436.92345434869816, 490.3794333956324, 774.5753002521705, -2022.4679685424287, -1987.4701536078055, 108.76625203341355, 104.60182730990317, -80.8059801199831, 518.8170348412508, 513.1853716948877, 15.26626321363915, 43.50341270921257, 48.27983655028392, -100.29142569674494, 104.9057912250179, 170.11567291119, -24.50881973822078, -109.0522832507805, -274.67003359230495, -26.845011636912957, -64.75688205459811, -109.96502227843183, 117.72488586437522, -74.05234933802795, -19.742306629134646, 8.210886499264518, 58.15026930634001, -2.0910308578646912, 1.6565080023191499, -42.627578711504825, -14.392497199742639, -40.03801206359397, -2.7404110728584747, 5.1152424033258015, 10.93175834662733, 7.17062172142435, -7.336682401094352, 12.335195137325176, 1.743859757755739, -11.045090774637238, -10.383896287752744, -5.08769084339689, -1.678110450983886, 2.874319989313248, 8.705711012017357, 3.459574045624098, 2.1486389571342643, 9.187302519778862, -2.839489944206351, -2.925919531500101, -0.7335914346383561, 2.651432306082293, -5.925503426319116, 3.6301310383623395, -2.688416150576783, -0.39163237962848996, 1.5394059466154877, 2.074358943660581, 2.5781307902480597, -1.110172042208525, 2.0531010681186173, -2.0110712717998815, -0.0013305089881772147, -1.8456419639238901, 1.054484185975348, -1.7743173691334029, 0.3866410347867113, 0.030670132991629018, -0.9639888106917067, -0.8888866294011472, -2.742182332770623, 0.10855259722772992, -0.018251501121850477, 0.7404327978632788, 0.6317846317399689, -0.9425030761764255, 0.20914888242955687, 0.027004723583202883, -0.18326034248701006, -0.007922551392209709, 0.29072379791069425, 0.023583823241565938, 0.14167009797399643, 0.09081391715623832, 0.26569816221827436, -0.19113427062095623, -0.15117296545027425, 0.4906741400137331, -0.11675473747599963, 0.15657728436579532, 0.023369801669616663, 0.22976643765362015, -0.13851454714771427, 0.452387254805809, 0.39827537908958455, -0.08806860875073019, -0.20101392348631597, -0.11813223291226427, 0.3178059037360166, 0.2183440404572612, -0.21518659747810887, 0.05295137879517142, 0.24798228239579956, 0.10020542758738127, 0.28166189335245306, -0.18857723602523713, 0.0641165806306252, -0.24958460306900254, -0.06013028960270761, -0.10211807341153367, 0.10979007872791535, -0.06399760348199623, 0.08022730449348625, -0.16750723788688926, -0.05023146720217753, 0.04339181601633779, -0.03946373517263346, -0.04765661365284746, 0.015093753317343833, -25630.369469507517, 14034.418732405951, -24152.837513554, 2764.0696637990645, 1008.6472784607847, 156.99704219092214, -1239.0146563114833, -2192.2058946007437, -806.6887820516966, -480.83494549091876, 3674.4240868945312, -1679.2189867249672, 733.9903050349145, 2196.4435924666013, -1443.0036303573784, 417.5797973402339, 1528.7767026045537, 178.34093115349532, -555.7028697081205, 46.49104240130684, 1204.5882730519586, -759.1299887703626, 78.99154060019663, -44.78884484280846, -217.773124177424, -688.1972460333834, -929.6749207702301, -468.75974378086727, -252.3330178164489, -155.3185797154158, -158.83068841522052, -133.32274735739952, -283.53303739458215, 215.61600624801324, 57.93133843975849, -161.01234775464354, -6.6821162361316055, -69.40240995377457, 140.42929151202574, 104.75701085413746, 122.39992399899057, 84.62431534165226, 40.016253094086736, 50.1918954167941, 64.31052351672248, -65.8318596338017, 1.8316720668566724, 1.6689158863229885, 10.083585711695651, -18.954621772597136, 34.61283636668077, -4.698558174320226, 3.525306753542843, -27.64166110875661, -7.3290599922612785, 34.83561652107744, 4.6446968365459895, -7.705322609552269, -16.66147218582372, -1.6019762740632828, -6.8119672669336815, 4.176392487234395, -6.462128329312968, -13.552475496341604, -8.350188559106687, -14.084538309966605, 33.85646453201135, 16.646383357007895, 20.220581912016872, 9.342524691751994, -20.487301946525974, 11.35850336114852, -14.43461937425974, 25.45480142705456, -16.920835061927225, 17.931598177389674, -3.5246856541564444, -11.925006484671046, 8.910205014033409, -8.216747280908002, 8.632577119602919, -17.722879571384563, 7.361731659985223, 3.909032022142089, -6.283182257505445, 0.18769409728282227, 4.775552780153446, -10.0606023073823, 5.900417045497388, 4.133937395311708, -4.017490600212925, -17.555269775193853, -1.9203131560221802, -6.697366352034765, 1.2608104553206818, -0.9126093919738736, 3.78952493517147, 9.841798018940032, 4.5385028455130945, 1.5192474567375314, 0.5142557205491598, -6.46548982331506, -7.499053416194729, -1.6475734330144238, -2.6450781687298015, 3.837386087494451, -0.5367103278154919, -4.088864789220084, 0.8736389546364034, -1.9388684769384925, -3.4887453043286136, 1.6474423418028126, -4.792118178889325, 2.887407619055118, 1.7728302529989008, -3.743633709973313, 2.2351905601446784, -0.611290916450665, -1.984887796586153, 0.046125518117232644, -2.7545440052177232, 2.2463383508517354, -1.9092651096882811, -2.5278057617066967, 0.28624780860771004, 0.5622344239401132, 1.5601345589718019, -2.4929937724542652]",-5.43,-3.3200000000000003,-5.45,-3.88,0.667,CF,DIO,25.0,MoOx,ZnO,7.7,7.49,0.957,13.51,57.9
"[-91850.1013944251, -31.94532944595926, -13640.129141491467, 5099.048943614727, 7326.240889669503, 7684.43407108446, 1997.5494770357122, -703.3152267823559, -259.7450865929389, 436.92345434869816, 490.3794333956324, 774.5753002521705, -2022.4679685424287, -1987.4701536078055, 108.76625203341355, 104.60182730990317, -80.8059801199831, 518.8170348412508, 513.1853716948877, 15.26626321363915, 43.50341270921257, 48.27983655028392, -100.29142569674494, 104.9057912250179, 170.11567291119, -24.50881973822078, -109.0522832507805, -274.67003359230495, -26.845011636912957, -64.75688205459811, -109.96502227843183, 117.72488586437522, -74.05234933802795, -19.742306629134646, 8.210886499264518, 58.15026930634001, -2.0910308578646912, 1.6565080023191499, -42.627578711504825, -14.392497199742639, -40.03801206359397, -2.7404110728584747, 5.1152424033258015, 10.93175834662733, 7.17062172142435, -7.336682401094352, 12.335195137325176, 1.743859757755739, -11.045090774637238, -10.383896287752744, -5.08769084339689, -1.678110450983886, 2.874319989313248, 8.705711012017357, 3.459574045624098, 2.1486389571342643, 9.187302519778862, -2.839489944206351, -2.925919531500101, -0.7335914346383561, 2.651432306082293, -5.925503426319116, 3.6301310383623395, -2.688416150576783, -0.39163237962848996, 1.5394059466154877, 2.074358943660581, 2.5781307902480597, -1.110172042208525, 2.0531010681186173, -2.0110712717998815, -0.0013305089881772147, -1.8456419639238901, 1.054484185975348, -1.7743173691334029, 0.3866410347867113, 0.030670132991629018, -0.9639888106917067, -0.8888866294011472, -2.742182332770623, 0.10855259722772992, -0.018251501121850477, 0.7404327978632788, 0.6317846317399689, -0.9425030761764255, 0.20914888242955687, 0.027004723583202883, -0.18326034248701006, -0.007922551392209709, 0.29072379791069425, 0.023583823241565938, 0.14167009797399643, 0.09081391715623832, 0.26569816221827436, -0.19113427062095623, -0.15117296545027425, 0.4906741400137331, -0.11675473747599963, 0.15657728436579532, 0.023369801669616663, 0.22976643765362015, -0.13851454714771427, 0.452387254805809, 0.39827537908958455, -0.08806860875073019, -0.20101392348631597, -0.11813223291226427, 0.3178059037360166, 0.2183440404572612, -0.21518659747810887, 0.05295137879517142, 0.24798228239579956, 0.10020542758738127, 0.28166189335245306, -0.18857723602523713, 0.0641165806306252, -0.24958460306900254, -0.06013028960270761, -0.10211807341153367, 0.10979007872791535, -0.06399760348199623, 0.08022730449348625, -0.16750723788688926, -0.05023146720217753, 0.04339181601633779, -0.03946373517263346, -0.04765661365284746, 0.015093753317343833, -24884.84603924302, 18278.782197393906, -26753.472234086796, 1702.3927694216873, 3574.347197433144, 1240.979626510632, -2058.4157048194465, -1849.1841444634792, -1104.2859949877932, 669.3196651982439, 4314.977818865713, -1858.0993998041974, 25.366485110938356, 2480.898541255321, -1449.5307837534488, 502.3651985677759, 1252.0212960998695, -772.0204366958662, -1255.3037889648476, 417.36972881013764, 1043.303373528805, -1460.5246216900402, 101.90392223416191, 356.49932627646626, -28.43471539106872, -257.94703535585404, -912.6244522927042, -456.87596031302235, -214.9230429418496, -347.1159572403393, -549.4622888783715, 127.3849885447492, 65.1703941727714, 76.38126469702667, 217.06487183445196, -59.490226349935156, 178.55920836207713, -87.97058529094326, 98.78469400372947, 65.50788203002593, 9.165299656003995, 130.79127445348598, -44.043135537668405, 233.12695304264906, -30.736501535939894, -66.02279395425953, 26.444675073350886, -12.25355776587758, -45.39554891008001, 68.36852119091111, 13.118567871569804, 128.49497271428572, 7.720526707962158, -61.198132880242206, -6.884217360301093, 29.238952720206335, -40.81358437674063, -11.463764384656315, 12.367192573745172, -62.04184026894529, -19.950184103346313, 49.51061080769518, -14.267291541972355, -27.32157401717222, 40.38773610776888, -28.665134615799374, -52.542781193935944, 45.078884883986824, 21.674282926278643, 14.280225476873582, 61.36286185304966, 1.220747991347451, 37.41916479654148, 22.056258068291964, 1.040528181906888, -13.403554162494224, 51.82759519876914, -3.8622044100491344, 10.110931415946038, 22.697171694745414, -12.336025085887469, 4.938211806598467, -11.068096468991943, 7.284471690659114, 16.963867818233116, -30.400817219338663, -0.799038954106523, 6.274149091236044, 1.2862265912276367, -5.985760753436406, 2.2652582530296, -3.1885803986570025, 3.6009197665373662, 5.152686332747749, -20.95203057431462, 0.34327492359664724, 13.026205256905179, 2.4541225737068526, 5.012645967221656, -5.828927813302315, -23.770034679167722, 11.250604202389676, 11.03211783902075, 13.315995535212247, -2.6872333063439484, 5.414467215746782, 2.25147171114009, 0.4113544791201136, 2.6483253913808458, -4.452052694412112, 1.5342152958719577, 1.5359080741984794, -0.961872019487501, -1.4615700766911939, 2.789525383455874, -0.7750957068236115, 0.13152020061536618, 5.33291330472858, -2.17884500676937, -2.010949312582923, 3.599934111519769, -4.755433987752989, -5.681402013089428, -4.69266299179794, -0.771830329122654, 8.005927073760578, 0.20133039702727018, 3.248922042295378]",-5.43,-3.3200000000000003,-5.54,-3.97,0.667,CF,DIO,25.0,MoOx,ZnO,10.1,9.93,0.929,16.63,64.3