DA_mordred_pca,HOMO_D_eV,LUMO_D_eV,HOMO_A_eV,LUMO_A_eV,D_A_ratio_m_m,solvent,solvent_additive,annealing_temperature,hole_contact_layer,electron_contact_layer,PCE_percent,calc_PCE_percent,Voc_V,Jsc_mA_cm_pow_neg2,FF_percent
"[-28876.479514377246, 38710.98347551014, -20908.77495808319, 5626.348234502178, -1656.055181725424, 1614.7421905025894, -3321.8898992590207, 3624.9205765371394, 1367.3145788102668, -2302.518667671884, 94.37774075163452, -763.9951636274479, 584.4175075601404, -69.48391721022313, -824.1439034933876, -1177.9097377797627, 846.8801744161406, 734.5057220652027, -464.5560000411756, -28.423642255227662, -523.6717686324714, -227.57207596555568, -357.5888090976363, -120.42021566553105, 235.21227013032157, 347.25019048092594, -42.39610314784511, 11.228483818106525, -379.8900791394773, 189.69632432763535, -184.61420289522226, -145.35082509816692, 87.82565535186399, -52.27957236598499, 151.3822493073156, -22.393178058349577, 69.55179616178063, -144.23659693592174, -14.84123085603845, -86.21051655816997, -26.748680566162307, -10.509996967889123, 29.10728281465549, 49.86166992244324, 5.937208803780237, -27.40652118128881, -16.453639580779956, -31.382862017953613, 0.11925841988094987, -75.27978976028044, -21.60573513783781, 34.456242967463915, -23.50687563251384, -23.247360957433756, 15.680950604168594, 21.5946893561876, 13.697832438672465, 4.269828179821335, 15.980999303447263, -0.738649707005635, -24.258988135209513, -10.030928827146468, -1.4093168944558556, -22.319559395338317, -9.99018101112368, 11.311905495006943, -14.720237471649313, -6.308653567563972, 1.9588923960491655, -13.267005954955376, 23.358015442320898, -0.4292450914806807, -7.786037327515007, 3.276886691372404, -0.6480655836591822, -11.162110200283454, -12.010162518559898, -8.035379877149856, -1.8399880527716945, -6.408948170302331, 1.497915920437336, -12.254836767464589, -1.5637399801978802, 2.8359510203764344, 7.519719839225232, -4.670112863904997, -0.266944493875638, 1.382276897824731, -0.7813796672346589, -1.0866923291168362, -1.6044026041736004, -1.7723187737767425, -5.208194241733786, -0.2997350154595191, 1.1864878065024662, 0.8973312876125235, -0.9764562054682102, -3.3040369718945115, 0.21358987930646123, -1.7383529771845927, -1.0101047087919461, 0.012312869449343289, -3.3775516827834586, 2.9866425837985133, 1.8547418210764626, -0.4907408672473963, 1.225386590844785, 1.983688021755615, 0.0963277592071643, 1.1081595041820398, -2.1947145606164398, 0.21612145561748086, -1.405130707846566, 1.166408509453893, -0.2787631012169385, 0.5629018624262763, -0.1951689671167287, -0.029314012718733018, -0.17591819424983512, 0.09975985010201205, 0.007799969776744575, 0.5947505396503345, 0.23569604584078974, 0.6273005587696936, -1.166719598714721, 0.1247011502067572, 0.9357092976474313, -0.12189953500508821, -35133.7948384405, -8229.633002095004, -12056.006677875394, 2789.4971387186242, -6137.391894299175, 347.2184125819449, 313.56897363838834, -763.0529003245208, -753.2713027045285, -463.7277561870353, 442.3965848250751, 144.76451622384843, -82.11980750356622, -241.51593372271438, -166.11661214239564, 161.0117266220481, 156.82867720048182, 45.04865333330787, -64.48252064437057, -23.748315205729725, 175.35196382208807, 75.91403661606171, -286.96291437231935, 32.43950758749915, 86.82629792655737, 17.332913738685377, -52.109964316334626, 147.96654517479746, -66.74616426635947, -30.131339361474026, -64.6842293414586, -20.401781789495175, -60.814467118058936, -33.126806506498966, -10.042152655421425, -51.312256336249625, 3.144366245462294, -3.71627624153237, 36.40376072528973, 0.4548085410526568, 8.77647477218483, -28.125389876423775, 2.49569238193056, -12.913454340121639, 4.879924205036842, -2.3377624767900205, -6.672954601090133, 6.202739337502919, -10.893634984359561, 12.032465269856662, -12.063043989303566, -0.34303639091355365, 5.016332629152714, 0.12086901313429266, -9.726503251923347, 6.137316418082435, -7.076062334661124, 7.3653218625323404, 3.5070409455817924, 2.301233891752652, 4.71929931757742, -1.926768238609477, -5.728496834707801, 0.05692591901005528, -4.227503980921206, 0.19035190488374848, -0.8161738905036682, -0.4714746073762517, 0.016165936440852846, 1.5320458160517845, -3.625921731256579, -1.3255082942715024, 1.0395488339674301, -2.629665545987187, 0.2524077098567754, -0.25955818195747327, -0.9738252465763915, -0.4436497764515863, 0.3498051835956417, -0.5126149363315342, -1.3513245580317377, 0.2982577901396226, 2.0905817811936993, -1.423686297008441, -0.5684747340003078, 0.06286388557579237, 1.556243536792186, 0.47664310848808533, 1.3381005503037402, 1.3274012761810585, -0.18103683328045683, 0.13158711423599634, -0.35216959119522606, 0.24205021276454275, -0.19716096928100413, 0.3411096425350699, 0.8983261097286253, -0.17492589746772325, -0.26859509238574053, -0.13780411398829884, 0.2481245213135157, -0.23952231622609954, -0.5478870274515413, 0.5484971724321479, 0.500298126046161, -0.06133469645540579, -0.3248140481935957, 0.313231347131103, 0.63465776568537, 0.5975958356568718, -0.21144062004099506, -0.6749983329678217, -0.32992632468938865, 0.3033181272449559, -0.12238950451054809, 0.06097724241096092, 0.2639722379565246, -0.2236154184593273, 0.06848499166746613, -0.30866773947200965, -0.13429432396519503, -0.2605157287139417, 0.0014308004863301527, 0.11389554910299449, -0.08035043575031331, -0.3428563737769905, -0.05785525732550667, -0.006029155567380151]",-5.24,-3.056666666666666,-5.574146341463415,-3.915,0.5,CF,_,150.0,PEDOT:PSS,PDINO,9.26,9.32,0.82,16.47,69.0
"[1556806.9266347245, -30940.28428257892, 4954.952543055359, 4933.036123574955, -9000.648361663028, 3535.2699796275992, 1771.5173906774617, -261.5267667207281, 145.6174674268127, -1388.4347475163397, -1250.9657925692454, 737.7217235819885, 1569.0997283262677, 269.5748189055412, -216.5877681700931, -1025.511609085459, -34.43255039909502, 412.692721438684, -568.4809624420872, -63.51032221005778, 182.6864345745073, -227.21036025926963, 124.5009155709431, -151.86183334306966, -324.3983710231026, 330.46471377709884, -37.14521749864275, -342.46868857073395, 353.8979247214027, -83.47002771833385, 26.448819469459245, -41.17584850554769, 74.16717971502129, -39.9967042178795, -51.61302232163439, 131.870680094369, -5.146185219514734, -61.958023176332034, -25.49933677056459, -19.823440830428467, -37.07659231206969, 50.53269505297257, 60.81032474887496, -17.478299042687468, -10.921026266289573, -15.46242069405838, 21.224262171276663, -10.365979084027252, -26.547469773979714, -14.55749986169161, 32.63856037492643, -5.300796138403605, -12.567380171509946, -18.026321271783303, 0.9637748752012456, 10.137094008677693, -16.879268944324625, -21.974428079554766, 17.790415865576676, -8.16299225942248, 10.834025912119685, -6.61257319893582, -2.038552912756643, -0.02937831788503331, 4.578668732676036, 4.75502903206614, -6.049868806122447, 7.97011171969708, -3.937197461007173, 7.179449604222324, -2.3900551810044988, -4.0551005945628305, -4.148203856747929, 2.45578043780408, 3.779957574863076, -3.1299587249195966, 4.607292104368753, -5.329918286036108, 2.9050488200647235, -0.8285467072434329, -0.773390841651576, -0.6981343421923896, -0.16845441274200823, -2.70452747707359, -1.577033363520428, 1.7690235257368272, 1.3425834248231778, -1.5888980984167773, 2.65264962015136, -1.4422553795720177, -0.21917509630273457, -0.4514500324068962, 0.8447259780374168, -0.10404504050284391, -0.8196461525052499, -0.6237973765390592, 0.5846798133225146, 0.5505393231679818, 0.4056094629866891, -0.0026852321266703782, 0.7583224108309494, -0.025079607569602702, 0.8587928174149937, 0.6903044448594358, -0.2199813330256397, 0.0979648093233294, 0.01659350296959161, -0.8580373092633101, 0.5459197620192526, 0.5645453112726919, -0.14604183537928606, -0.47275750716333675, 0.44805126279683183, -0.47250124719169406, -0.047359074261962064, -0.10412561233027517, -0.2620358013395965, -0.014017827572182284, -0.19949207682497416, -0.15230088409717446, -0.24134565339478797, 0.33523511758616564, 0.15182122981784274, 0.019908197065113598, 0.1016005168984293, 0.37560334887344027, -0.16709472932147662, -0.014963975552475972, -35133.7948384405, -8229.633002095004, -12056.006677875394, 2789.4971387186242, -6137.391894299175, 347.2184125819449, 313.56897363838834, -763.0529003245208, -753.2713027045285, -463.7277561870353, 442.3965848250751, 144.76451622384843, -82.11980750356622, -241.51593372271438, -166.11661214239564, 161.0117266220481, 156.82867720048182, 45.04865333330787, -64.48252064437057, -23.748315205729725, 175.35196382208807, 75.91403661606171, -286.96291437231935, 32.43950758749915, 86.82629792655737, 17.332913738685377, -52.109964316334626, 147.96654517479746, -66.74616426635947, -30.131339361474026, -64.6842293414586, -20.401781789495175, -60.814467118058936, -33.126806506498966, -10.042152655421425, -51.312256336249625, 3.144366245462294, -3.71627624153237, 36.40376072528973, 0.4548085410526568, 8.77647477218483, -28.125389876423775, 2.49569238193056, -12.913454340121639, 4.879924205036842, -2.3377624767900205, -6.672954601090133, 6.202739337502919, -10.893634984359561, 12.032465269856662, -12.063043989303566, -0.34303639091355365, 5.016332629152714, 0.12086901313429266, -9.726503251923347, 6.137316418082435, -7.076062334661124, 7.3653218625323404, 3.5070409455817924, 2.301233891752652, 4.71929931757742, -1.926768238609477, -5.728496834707801, 0.05692591901005528, -4.227503980921206, 0.19035190488374848, -0.8161738905036682, -0.4714746073762517, 0.016165936440852846, 1.5320458160517845, -3.625921731256579, -1.3255082942715024, 1.0395488339674301, -2.629665545987187, 0.2524077098567754, -0.25955818195747327, -0.9738252465763915, -0.4436497764515863, 0.3498051835956417, -0.5126149363315342, -1.3513245580317377, 0.2982577901396226, 2.0905817811936993, -1.423686297008441, -0.5684747340003078, 0.06286388557579237, 1.556243536792186, 0.47664310848808533, 1.3381005503037402, 1.3274012761810585, -0.18103683328045683, 0.13158711423599634, -0.35216959119522606, 0.24205021276454275, -0.19716096928100413, 0.3411096425350699, 0.8983261097286253, -0.17492589746772325, -0.26859509238574053, -0.13780411398829884, 0.2481245213135157, -0.23952231622609954, -0.5478870274515413, 0.5484971724321479, 0.500298126046161, -0.06133469645540579, -0.3248140481935957, 0.313231347131103, 0.63465776568537, 0.5975958356568718, -0.21144062004099506, -0.6749983329678217, -0.32992632468938865, 0.3033181272449559, -0.12238950451054809, 0.06097724241096092, 0.2639722379565246, -0.2236154184593273, 0.06848499166746613, -0.30866773947200965, -0.13429432396519503, -0.2605157287139417, 0.0014308004863301527, 0.11389554910299449, -0.08035043575031331, -0.3428563737769905, -0.05785525732550667, -0.006029155567380151]",-5.303333333333334,-3.151666666666667,-5.574146341463415,-3.915,1.0,CF,_,100.0,PEDOT:PSS,PDINO,9.53,9.54,0.89,17.43,61.48
"[1556806.9266347245, -30940.28428257892, 4954.952543055359, 4933.036123574955, -9000.648361663028, 3535.2699796275992, 1771.5173906774617, -261.5267667207281, 145.6174674268127, -1388.4347475163397, -1250.9657925692454, 737.7217235819885, 1569.0997283262677, 269.5748189055412, -216.5877681700931, -1025.511609085459, -34.43255039909502, 412.692721438684, -568.4809624420872, -63.51032221005778, 182.6864345745073, -227.21036025926963, 124.5009155709431, -151.86183334306966, -324.3983710231026, 330.46471377709884, -37.14521749864275, -342.46868857073395, 353.8979247214027, -83.47002771833385, 26.448819469459245, -41.17584850554769, 74.16717971502129, -39.9967042178795, -51.61302232163439, 131.870680094369, -5.146185219514734, -61.958023176332034, -25.49933677056459, -19.823440830428467, -37.07659231206969, 50.53269505297257, 60.81032474887496, -17.478299042687468, -10.921026266289573, -15.46242069405838, 21.224262171276663, -10.365979084027252, -26.547469773979714, -14.55749986169161, 32.63856037492643, -5.300796138403605, -12.567380171509946, -18.026321271783303, 0.9637748752012456, 10.137094008677693, -16.879268944324625, -21.974428079554766, 17.790415865576676, -8.16299225942248, 10.834025912119685, -6.61257319893582, -2.038552912756643, -0.02937831788503331, 4.578668732676036, 4.75502903206614, -6.049868806122447, 7.97011171969708, -3.937197461007173, 7.179449604222324, -2.3900551810044988, -4.0551005945628305, -4.148203856747929, 2.45578043780408, 3.779957574863076, -3.1299587249195966, 4.607292104368753, -5.329918286036108, 2.9050488200647235, -0.8285467072434329, -0.773390841651576, -0.6981343421923896, -0.16845441274200823, -2.70452747707359, -1.577033363520428, 1.7690235257368272, 1.3425834248231778, -1.5888980984167773, 2.65264962015136, -1.4422553795720177, -0.21917509630273457, -0.4514500324068962, 0.8447259780374168, -0.10404504050284391, -0.8196461525052499, -0.6237973765390592, 0.5846798133225146, 0.5505393231679818, 0.4056094629866891, -0.0026852321266703782, 0.7583224108309494, -0.025079607569602702, 0.8587928174149937, 0.6903044448594358, -0.2199813330256397, 0.0979648093233294, 0.01659350296959161, -0.8580373092633101, 0.5459197620192526, 0.5645453112726919, -0.14604183537928606, -0.47275750716333675, 0.44805126279683183, -0.47250124719169406, -0.047359074261962064, -0.10412561233027517, -0.2620358013395965, -0.014017827572182284, -0.19949207682497416, -0.15230088409717446, -0.24134565339478797, 0.33523511758616564, 0.15182122981784274, 0.019908197065113598, 0.1016005168984293, 0.37560334887344027, -0.16709472932147662, -0.014963975552475972, -35133.7948384405, -8229.633002095004, -12056.006677875394, 2789.4971387186242, -6137.391894299175, 347.2184125819449, 313.56897363838834, -763.0529003245208, -753.2713027045285, -463.7277561870353, 442.3965848250751, 144.76451622384843, -82.11980750356622, -241.51593372271438, -166.11661214239564, 161.0117266220481, 156.82867720048182, 45.04865333330787, -64.48252064437057, -23.748315205729725, 175.35196382208807, 75.91403661606171, -286.96291437231935, 32.43950758749915, 86.82629792655737, 17.332913738685377, -52.109964316334626, 147.96654517479746, -66.74616426635947, -30.131339361474026, -64.6842293414586, -20.401781789495175, -60.814467118058936, -33.126806506498966, -10.042152655421425, -51.312256336249625, 3.144366245462294, -3.71627624153237, 36.40376072528973, 0.4548085410526568, 8.77647477218483, -28.125389876423775, 2.49569238193056, -12.913454340121639, 4.879924205036842, -2.3377624767900205, -6.672954601090133, 6.202739337502919, -10.893634984359561, 12.032465269856662, -12.063043989303566, -0.34303639091355365, 5.016332629152714, 0.12086901313429266, -9.726503251923347, 6.137316418082435, -7.076062334661124, 7.3653218625323404, 3.5070409455817924, 2.301233891752652, 4.71929931757742, -1.926768238609477, -5.728496834707801, 0.05692591901005528, -4.227503980921206, 0.19035190488374848, -0.8161738905036682, -0.4714746073762517, 0.016165936440852846, 1.5320458160517845, -3.625921731256579, -1.3255082942715024, 1.0395488339674301, -2.629665545987187, 0.2524077098567754, -0.25955818195747327, -0.9738252465763915, -0.4436497764515863, 0.3498051835956417, -0.5126149363315342, -1.3513245580317377, 0.2982577901396226, 2.0905817811936993, -1.423686297008441, -0.5684747340003078, 0.06286388557579237, 1.556243536792186, 0.47664310848808533, 1.3381005503037402, 1.3274012761810585, -0.18103683328045683, 0.13158711423599634, -0.35216959119522606, 0.24205021276454275, -0.19716096928100413, 0.3411096425350699, 0.8983261097286253, -0.17492589746772325, -0.26859509238574053, -0.13780411398829884, 0.2481245213135157, -0.23952231622609954, -0.5478870274515413, 0.5484971724321479, 0.500298126046161, -0.06133469645540579, -0.3248140481935957, 0.313231347131103, 0.63465776568537, 0.5975958356568718, -0.21144062004099506, -0.6749983329678217, -0.32992632468938865, 0.3033181272449559, -0.12238950451054809, 0.06097724241096092, 0.2639722379565246, -0.2236154184593273, 0.06848499166746613, -0.30866773947200965, -0.13429432396519503, -0.2605157287139417, 0.0014308004863301527, 0.11389554910299449, -0.08035043575031331, -0.3428563737769905, -0.05785525732550667, -0.006029155567380151]",-5.303333333333334,-3.151666666666667,-5.574146341463415,-3.915,1.0,CF,_,130.0,PEDOT:PSS,PDINO,10.57,10.57,0.898,17.97,65.49