DA_mordred_pca,HOMO_D_eV,LUMO_D_eV,HOMO_A_eV,LUMO_A_eV,D_A_ratio_m_m,solvent,solvent_additive,annealing_temperature,hole_contact_layer,electron_contact_layer,PCE_percent,calc_PCE_percent,Voc_V,Jsc_mA_cm_pow_neg2,FF_percent
"[-58500.75575541476, 116651.57825906713, -5681.487191470267, 11854.063181302146, -2364.1991494681424, 808.8922396695671, 11695.427172816964, 7222.953601834008, -2076.7496671072763, 3210.2013336660675, -1223.171708912293, -2977.417262018863, -1428.083606132848, 170.62987720059255, -1946.356432315709, 392.6235080765564, -463.2121901789276, -1656.171013415361, -479.2047420549787, -558.0748429645112, 226.87728292173037, -587.5758890886511, -3.4589001144370286, 678.7509663827054, -54.23100727898395, 4.462065882039951, 671.4379646254013, 26.300661605919004, 238.45159898005159, -288.8118899564553, -184.70510110910442, 132.40991519322998, 296.23726242097166, -154.93711015715448, 20.869632396696716, -12.941775280781144, -61.17297149195139, 151.45402030718236, 251.75617634698162, -1.0993378526741822, 37.89817554051237, 27.73389035356888, -6.397581828941611, -114.36823620240642, 57.73437539222522, 6.192691655754743, -28.652103735752775, 10.09179111226652, 10.99264408625804, -23.93667552549715, 56.379072392095026, 9.09524833526828, 11.93696311300912, 38.826837234999715, 12.977607159690038, 37.2485043340202, 6.006711674555479, 43.04919691797243, 13.288155226461015, -26.07273196645167, -3.1336890710926006, -51.01785345803333, 4.533621412975151, -19.474619504293514, -19.726616149194946, 4.560425731953188, 18.40955281870808, -17.410730956663315, 12.979419308826493, 21.96850276974383, -18.827638574175815, -7.113530326000415, 7.753042694726919, -15.00741244740049, -7.795856014486546, 3.385981499467391, -0.19873120854909132, -15.09354034596224, 12.233076511044425, -1.3024922113505681, 7.10435528177203, 1.8816228087263411, 5.273123505526215, 0.32307044453993683, 4.274790240894561, -3.6848107537447135, 7.368882079846616, 2.0135601026588006, -1.0141868880779654, -5.022119498355369, 5.5702494802278295, -0.9406344188562912, -1.7698580955482157, -2.2609557758222403, 0.022190813142096033, -1.153324764504461, -3.5744464419502124, -3.117246439115547, -3.4257397979439617, -3.256037980759794, 0.354215005921489, 3.5427138997028953, 0.2211166465008887, -1.0876674240566189, 0.7220204369054066, 0.9964860128223876, -0.10286026878481991, 0.5418426368351099, 0.6430576690743877, 0.34244324935546544, -0.6324034075923635, -0.4111945054759829, -0.8007458267549783, 1.6211871314346453, 0.6467048280102006, 1.0143039342185496, 0.40918549882011845, -0.3795718277924678, -0.6763494984468892, 0.5530836036010776, 1.1554920501766262, -0.09709010327561174, 0.6680516773684664, -0.30403584632098557, -0.0021506804786639577, 0.17032059579537417, -0.19465295141805683, 0.12435426246822345, -78075.75498049763, -118076.08473484853, 29104.532004168006, 5875.865852564966, 255.950698233175, -4956.403532616757, -3027.9094332783316, 1273.2577252050596, -1049.971458435921, 1995.1789386060111, -1313.3872106504723, 1292.559170965022, 972.8957767794859, 784.6624309433921, -635.9853464572047, -319.7423426702585, -396.1510203219459, -979.440588156704, 151.9357885127547, -35.57181073200354, 449.4593451218175, 346.85737542543643, -64.12635823713845, 471.69748207109683, 294.3370941124963, -113.39381493561939, -172.5796318691854, 114.24584665150444, -310.738396535877, 167.6978832447772, 6.4487660481338835, -45.71432569730837, 15.579644449015348, 3.8733078808595565, 41.58011635575022, 56.86963956910492, -149.06170015930672, -61.53472710732615, -9.366638080205806, 8.358146311447513, -92.06730499485258, -18.455432391260274, -49.57572780911744, -45.404250772040626, -23.67546084936984, 15.78705407761609, -0.7632253371750721, -14.0593462537461, -19.318485824059337, 5.16045548467855, 41.50887220661331, -12.15858379129594, -7.0334706014246535, 9.749726314369497, -4.276975652104284, 7.5066063842321, 19.14931500205566, 8.773896797277246, -11.088011843227491, 3.300670154050181, -16.08565089039115, 13.484276326125425, -2.0107864835974567, 0.8012823668953928, 7.36382837987577, -7.2060654187509865, 5.880839492776145, 11.902173832678194, -2.454020234662604, 5.289233921891054, 2.206318272334272, 0.8642288292509761, -0.17810255228403093, 4.880697092070115, 2.997768592853223, 5.078935950230772, 0.6615404580787612, -2.4321842671258906, -4.361537966269651, -5.067406294236363, -6.098875653620397, 2.0296017309619288, -3.7205254000452044, 1.7475522821006564, -2.0587388597965344, 1.113812700578734, 0.5315267588976909, -0.2703264021863703, 0.46103154307434835, -3.745050987293194, 2.406372819014834, 3.5899374940757554, -0.8529015304823417, 2.395492753664314, 1.7879954839569479, -2.365605494254332, -1.5863758479521124, 0.5247400502301076, -0.5292227031958863, -1.3624797784297584, 2.2242092796714488, -0.1594438274686425, -0.9464697326852517, 0.8234417640056053, -0.06555679187322028, 2.489740042780774, -0.7789374882895501, -1.5527305588123959, -0.46271835412552065, 1.4434225530875224, -0.2894129773833498, 1.1536332976632835, 1.3103310181282097, 0.014127842884548159, -0.19543101801733798, -0.2770240634948351, 0.23906534534624768, 0.130547100854848, -0.3414848787346543, 0.05457140571088814, -0.5438122106710002, 0.20465763047534935, 0.19994977123417712, -0.5135255547112365, -0.5718140372388518, 0.41317084016889893, -0.1375299881973291, -0.004673916868647154]",-5.36,-3.51,-5.706,-4.002666666666667,1.0,CF,DIO,25.0,MoOx,ZnO,8.58,8.58,0.822,15.93,65.5
"[-78288.83361371272, 124914.10091585551, -3333.972976905339, 11057.95040827105, 1421.933558032797, 1427.2886002849755, 8853.789707935055, 2539.643501880423, -4789.2200635048575, 1437.5396330333106, 473.6946432944342, -2295.685353627893, -1896.1048783039398, 1023.2937655961828, -1479.2872411679732, 1464.9344599368017, 1580.9218577707018, 112.11205349667716, -769.4997094227643, -461.0716543809465, -177.92668522309552, 639.6051535930262, -76.30727125449653, 112.75558632501662, -1.2715293639299716, -423.17355836131765, 147.3286315130618, 529.8499671473372, 1152.0281768221644, -76.89762796006735, 165.45815345531275, -470.5926999494871, -182.00658117637005, 288.24220357647846, 75.0209783715834, -50.908547733165165, 11.065537341140953, -115.8855294623778, -33.212027083029895, -53.961147738744046, -156.6338109198231, -25.7265707365778, -67.59609949468853, 32.94338320445007, 47.13142335440273, 122.19250823321607, -63.39205598181934, -21.082164738226595, -125.61379525430343, -25.80823294912716, 85.07924369301975, -36.525137310386214, 28.356386877736178, 0.7013966018607221, -15.991866109415596, 4.21159360147513, 53.62892758108664, -16.002147317648408, -21.758922112129113, -41.24861142034865, -5.994819334101926, 10.008551191951568, 5.6269763056714055, 17.125425734623008, 8.821503800925107, -12.291896922177834, 3.607038572739839, 5.6944710815712085, 12.091885047876133, -14.865400747462179, 10.80660733325903, -13.13521127230294, 5.183526141509214, 7.657537552090616, 0.9705456993924031, -2.0924144714867765, -10.511350087279013, 1.223474790662742, -1.8543696483774568, 6.5671435564100165, -7.716142483937858, -10.489265945948901, -5.195943328828399, 6.451995891217386, 1.2802728332835045, 3.769422237984884, 0.6634630140832805, 0.5950393093919217, -0.35786458228483475, 9.634670566173085, -1.7276572775092802, 1.8511149720776814, -1.6632881899092737, 3.132283846755476, 0.8974142109503696, 2.975760829673007, 4.64501886052758, -1.3631878176955468, 2.9946704446166876, 1.7351775306638009, -0.5952799705886633, 0.7587104922903602, 2.2325037600288447, 0.4457761121148849, 1.0730175768692973, -0.39740131363340936, -1.3248432027864006, 0.04017665325055919, -0.11942876105064215, 0.7785759928703584, 0.8473537939072671, 0.25123435199702726, -0.020973133477323103, -0.7674697208581236, 0.11175766628380757, 0.7518123252660143, -0.21611826320228644, -0.5342490332001155, 0.18653402862261004, -0.29326076480153596, -0.9203557891845691, 0.3923090243008147, 0.15954619306506146, 0.0098653180017223, -0.2706596231950016, 0.19992713689487118, 0.2787030830627728, -0.02627888017175195, -78075.75498049763, -118076.08473484853, 29104.532004168006, 5875.865852564966, 255.950698233175, -4956.403532616757, -3027.9094332783316, 1273.2577252050596, -1049.971458435921, 1995.1789386060111, -1313.3872106504723, 1292.559170965022, 972.8957767794859, 784.6624309433921, -635.9853464572047, -319.7423426702585, -396.1510203219459, -979.440588156704, 151.9357885127547, -35.57181073200354, 449.4593451218175, 346.85737542543643, -64.12635823713845, 471.69748207109683, 294.3370941124963, -113.39381493561939, -172.5796318691854, 114.24584665150444, -310.738396535877, 167.6978832447772, 6.4487660481338835, -45.71432569730837, 15.579644449015348, 3.8733078808595565, 41.58011635575022, 56.86963956910492, -149.06170015930672, -61.53472710732615, -9.366638080205806, 8.358146311447513, -92.06730499485258, -18.455432391260274, -49.57572780911744, -45.404250772040626, -23.67546084936984, 15.78705407761609, -0.7632253371750721, -14.0593462537461, -19.318485824059337, 5.16045548467855, 41.50887220661331, -12.15858379129594, -7.0334706014246535, 9.749726314369497, -4.276975652104284, 7.5066063842321, 19.14931500205566, 8.773896797277246, -11.088011843227491, 3.300670154050181, -16.08565089039115, 13.484276326125425, -2.0107864835974567, 0.8012823668953928, 7.36382837987577, -7.2060654187509865, 5.880839492776145, 11.902173832678194, -2.454020234662604, 5.289233921891054, 2.206318272334272, 0.8642288292509761, -0.17810255228403093, 4.880697092070115, 2.997768592853223, 5.078935950230772, 0.6615404580787612, -2.4321842671258906, -4.361537966269651, -5.067406294236363, -6.098875653620397, 2.0296017309619288, -3.7205254000452044, 1.7475522821006564, -2.0587388597965344, 1.113812700578734, 0.5315267588976909, -0.2703264021863703, 0.46103154307434835, -3.745050987293194, 2.406372819014834, 3.5899374940757554, -0.8529015304823417, 2.395492753664314, 1.7879954839569479, -2.365605494254332, -1.5863758479521124, 0.5247400502301076, -0.5292227031958863, -1.3624797784297584, 2.2242092796714488, -0.1594438274686425, -0.9464697326852517, 0.8234417640056053, -0.06555679187322028, 2.489740042780774, -0.7789374882895501, -1.5527305588123959, -0.46271835412552065, 1.4434225530875224, -0.2894129773833498, 1.1536332976632835, 1.3103310181282097, 0.014127842884548159, -0.19543101801733798, -0.2770240634948351, 0.23906534534624768, 0.130547100854848, -0.3414848787346543, 0.05457140571088814, -0.5438122106710002, 0.20465763047534935, 0.19994977123417712, -0.5135255547112365, -0.5718140372388518, 0.41317084016889893, -0.1375299881973291, -0.004673916868647154]",-5.52,-3.66,-5.706,-4.002666666666667,1.0,CF,DIO,25.0,MoOx,ZnO,10.04,10.04,0.925,16.13,67.3