DA_mordred_pca,HOMO_D_eV,LUMO_D_eV,HOMO_A_eV,LUMO_A_eV,D_A_ratio_m_m,solvent,solvent_additive,annealing_temperature,hole_contact_layer,electron_contact_layer,PCE_percent,calc_PCE_percent,Voc_V,Jsc_mA_cm_pow_neg2,FF_percent
"[-96218.45766618998, 38190.55941397739, 9341.19863978244, -298.0321681723599, 3837.039845288656, -633.0815150821412, -1318.980794355729, 952.285808193773, 528.6042339012306, -265.75996339509254, 85.60403763240663, 327.51410203292335, 339.9238825739942, -217.3938336123946, 80.63195135367053, -89.32083633853233, 32.19492584684396, -21.519530699055707, -3.6266113552724115, -73.04368468656011, 86.79421267883791, 28.9157151412623, 61.36551771993493, -20.29937758864763, -20.5145225649866, 1.7418865694839667, -22.377181673057002, 12.371971410300219, 34.95291732805864, 10.187903617561325, 15.16604348820858, 8.612060636243209, -1.1743635221400766, 7.0376682218726625, -4.093627003889395, 9.922048209550361, -15.554840299560915, -5.613674452998811, -0.2972665085945745, 4.368352481075529, -3.6043195792310403, 1.354200703685919, 2.8516893216669104, -4.255469010620061, 8.299974464104451, 1.2791418187815111, 1.2654639155740988, -2.171801897186288, 0.7563528622149089, 1.6309678283868045, 0.8461705305940708, 3.200150728577338, 4.514637663770485, 2.047832060332592, 0.988495732690156, 3.0209744065138135, -1.0787642655477623, -0.5848165573459294, 0.7450505682325215, 0.7138952097940852, -0.4513392507860554, 0.44000043161623736, 0.9076636698868725, -0.7553614212014921, -1.1367214236829248, 1.4883333004282742, -0.6534390261587824, -0.2020478861539523, 0.5979438493412772, 0.35044047212350127, 0.5920200016964907, -0.4545510567545348, 1.2436977886366634, 0.06188974879205844, 0.28770923066137755, 0.34025436763747585, 0.054350949740208376, 0.15963437295462057, -0.5109982693033068, 0.3735134387368202, 0.6870145153430531, 0.38216412404326583, -0.20553217795980494, -0.08297866327442271, -0.09481622405384194, -0.0074888306561717854, 0.442508262678758, 0.06098427500299941, -0.4139541096843904, 0.14832844029545988, -0.294554145147611, 0.015892796356977712, 0.1548609075275289, -0.005654655004061704, 0.07842930267586645, -0.20841896255037717, 0.07855635365402769, 0.01820150849557578, 0.012441639298426566, -0.05940224021880214, 0.12084591158474112, 0.026787833651969892, 0.019668535058581682, 0.05537380493890609, -0.03933624965050253, 0.009307974571203914, -0.023474896973407267, 0.020049719383548492, 0.003215210697313786, -0.04194589694978035, 0.04089452902605473, 0.02749361263995076, -0.07262298298187164, 0.015379054954234306, 0.0506532373375812, 0.01506994111025417, -0.02377975685210143, 0.009711782809699865, -0.04845640783987859, 0.03322037544939782, -0.008444174408285043, -0.002255075440015908, 0.022455666638478533, -0.005795103590370054, 0.02421124183525336, 0.01760123567103644, -0.016655303062377946, 0.018813816162650987, -50248.52650029349, -33700.37436596481, -28456.871931889702, 21496.280415049594, 13992.613708272725, 710.7472243319697, 2967.980870877209, 7362.270288636399, 2539.0684603737554, -817.5894051857524, 300.1086611686103, 421.85331155214, -3618.8746536973717, -661.9323285363424, 625.1075344003118, 186.72660443117638, -640.8067188081062, 498.30339966837175, 1045.053990147412, -741.1417464078165, 187.79111305401773, 126.02035580260656, -308.9845030144556, 233.0558529755839, 369.732713296168, -447.31480292176104, -475.1120406231044, -321.4514986117034, 352.9079985831626, -66.63433467014447, 328.23319795246965, 420.65313581622263, 178.31157212533248, 320.64286595554495, 77.1405019460076, 152.0864914563858, 21.94986991548444, 236.1929346621144, -284.06165540589126, -270.90690016662387, -174.0749152641415, -1.1472396508657567, -79.6259822262005, 69.38526810270801, 27.387052397104917, -9.195324269506273, 11.650930929622099, 47.84488227849724, -31.262971485739413, -39.58404560592453, -50.56451571015724, -1.8029053905332262, 11.07043906322889, -13.391876567638178, -10.884930621915828, -20.857734335791534, -18.526538361706102, -16.879179613355618, -24.609208189712632, 18.382999879695205, 4.6611380644279095, 0.9686025523568684, 49.776329431383004, -23.367223629435756, 6.3097203112888, -18.16075554962704, -0.13345850881926857, 15.06980549786546, -26.291360304080087, 6.101016952024221, -14.830831792026636, -1.723272120997632, -9.36294830419773, 12.244763600650478, -5.604059790775294, -7.74426464358244, -0.71218709895291, -0.2651627685135729, 1.1913895102136394, -8.983022302698458, 8.065548918837793, 4.285698929980301, -1.6546143719246436, 2.8897403626182268, 4.396652842592751, 4.169578972884096, 1.1773921287095774, -2.7432383845228507, 16.045820008759932, -6.034862137542717, -2.8241896089724463, -6.420870951329341, -9.835986713310014, 0.6253192033129764, 4.261017646925794, 8.121716753356766, 2.9753507228276987, 3.6568062681638125, -0.3643198188012402, -2.124426577879241, -3.7380254167504603, 1.1674898550529988, 4.9071975664490814, 5.218732555825412, 0.7051800374142196, 1.920442063622838, -5.609103146957089, -5.705304818623399, -0.4234162348990438, 2.2843475079586106, 1.4975748152769928, 1.8280309964368477, -1.4831552319365144, -2.9223123972508915, -4.5026632471928405, -2.652598943987858, 0.18097205753870327, -0.14913255003176928, -0.3532841698037217, -1.7271127384291942, 3.7754254899717967, -0.06673088090536083, 0.6223070295508482, 1.533817780969117, 0.05382545164893138, -1.0575674368334589, -1.3016484914541095, 0.5777537353238493]",-5.297714285714285,-3.4170000000000003,-5.68,-4.03,1.0,CB,DIO,25.0,MoOx,ZnO,10.61,10.61,0.856,17.05,72.7
"[-96218.45766618998, 38190.55941397739, 9341.19863978244, -298.0321681723599, 3837.039845288656, -633.0815150821412, -1318.980794355729, 952.285808193773, 528.6042339012306, -265.75996339509254, 85.60403763240663, 327.51410203292335, 339.9238825739942, -217.3938336123946, 80.63195135367053, -89.32083633853233, 32.19492584684396, -21.519530699055707, -3.6266113552724115, -73.04368468656011, 86.79421267883791, 28.9157151412623, 61.36551771993493, -20.29937758864763, -20.5145225649866, 1.7418865694839667, -22.377181673057002, 12.371971410300219, 34.95291732805864, 10.187903617561325, 15.16604348820858, 8.612060636243209, -1.1743635221400766, 7.0376682218726625, -4.093627003889395, 9.922048209550361, -15.554840299560915, -5.613674452998811, -0.2972665085945745, 4.368352481075529, -3.6043195792310403, 1.354200703685919, 2.8516893216669104, -4.255469010620061, 8.299974464104451, 1.2791418187815111, 1.2654639155740988, -2.171801897186288, 0.7563528622149089, 1.6309678283868045, 0.8461705305940708, 3.200150728577338, 4.514637663770485, 2.047832060332592, 0.988495732690156, 3.0209744065138135, -1.0787642655477623, -0.5848165573459294, 0.7450505682325215, 0.7138952097940852, -0.4513392507860554, 0.44000043161623736, 0.9076636698868725, -0.7553614212014921, -1.1367214236829248, 1.4883333004282742, -0.6534390261587824, -0.2020478861539523, 0.5979438493412772, 0.35044047212350127, 0.5920200016964907, -0.4545510567545348, 1.2436977886366634, 0.06188974879205844, 0.28770923066137755, 0.34025436763747585, 0.054350949740208376, 0.15963437295462057, -0.5109982693033068, 0.3735134387368202, 0.6870145153430531, 0.38216412404326583, -0.20553217795980494, -0.08297866327442271, -0.09481622405384194, -0.0074888306561717854, 0.442508262678758, 0.06098427500299941, -0.4139541096843904, 0.14832844029545988, -0.294554145147611, 0.015892796356977712, 0.1548609075275289, -0.005654655004061704, 0.07842930267586645, -0.20841896255037717, 0.07855635365402769, 0.01820150849557578, 0.012441639298426566, -0.05940224021880214, 0.12084591158474112, 0.026787833651969892, 0.019668535058581682, 0.05537380493890609, -0.03933624965050253, 0.009307974571203914, -0.023474896973407267, 0.020049719383548492, 0.003215210697313786, -0.04194589694978035, 0.04089452902605473, 0.02749361263995076, -0.07262298298187164, 0.015379054954234306, 0.0506532373375812, 0.01506994111025417, -0.02377975685210143, 0.009711782809699865, -0.04845640783987859, 0.03322037544939782, -0.008444174408285043, -0.002255075440015908, 0.022455666638478533, -0.005795103590370054, 0.02421124183525336, 0.01760123567103644, -0.016655303062377946, 0.018813816162650987, -48211.14151073332, -16886.667760200686, -51154.78174579371, 36001.906088170785, 44246.00299315658, 20871.098522025448, 24798.266201804225, 19040.090545776482, 10806.203693881382, 11259.266892948688, -229.64799801715844, 8325.362071942724, -4425.624681680332, -5388.745281104013, -501.2939537754811, -653.635334079552, 2293.773669510392, -1652.3469828317413, 955.772328159212, 5352.1365953617915, 3280.7107213767777, -2473.649731122924, -1867.8862503772734, -43.233363030637065, -1062.254198871343, 2695.095015876085, 978.4335142443853, 513.9559010494855, -786.5631143608507, -477.52003166017073, -44.06338758064065, -685.7874034468502, 242.79508069896568, -263.37656844296674, 267.09645506773614, -389.00122892235976, -97.88186789439344, -118.96280591228658, 171.52203147488632, 409.1643680383948, 120.23720481962374, 58.36286040458869, -204.51013821801493, 69.48647144138856, 288.07998165471315, 140.2739636407539, -75.51016775869127, -271.32418147693943, 34.42363934627937, -221.1535198486483, 96.97242952017831, -87.27297403047154, 39.128700012918216, 5.431239154477581, -24.655427468786456, -19.955183350240887, 22.738049461247705, 14.264057838420939, 48.80926388879658, -60.075663853149194, -7.980551345386154, 36.33743634958931, -55.35224316441612, 38.25068494553725, -39.940850628116394, 52.35828097651692, 6.760738332140536, -2.179726138658552, 23.521791054148398, -2.7870490817922473, -4.74996474871271, -8.494205129071974, 4.887787107760914, 9.521828226866093, 0.35328640479477524, -8.812404181212585, 3.532509717736918, 8.800719966728904, -0.771138584382939, -2.677719291348957, -0.2612903822894186, -5.878882004656212, 1.2092429898195398, 4.374357996593318, -6.703399110695237, -1.4440559148944394, -0.8117697568620317, -0.3513497643959198, 2.056559455048779, -0.06851438615906602, 1.602585403085122, 1.3748249680773057, 0.2971746961780113, -0.6805261709553179, 0.18423971897058067, 0.7257634777418804, 0.289444860397861, -1.1252558394369068, 0.8576170393354632, -0.20253891676708236, 0.8096045710843214, -0.49984445788769705, -0.18760998915348592, 0.44098215777690264, -0.20978545196935627, -0.5720728666063435, 0.3811795446779871, 0.5944745155300413, 0.8722559169172817, 0.08557769896087564, -0.5479504143010168, -1.0486503909042888, -0.4004078591234119, 0.548392579858147, 0.22545002467035147, 0.4945516169768638, -0.5838304592566885, -0.24647021489838572, -0.12070417528656563, 0.08326117218009266, -0.2612697178998147, 0.02034894240806684, 0.3057345472694619, 0.35849604257245815, 0.1330171233897568, -0.32770496580550557, 0.07625186110047011, 0.47304842681739423]",-5.297714285714285,-3.4170000000000003,-5.65,-4.0,1.0,CB,DIO,25.0,MoOx,ZnO,9.02,9.02,0.869,15.2,68.3
"[-105631.73783275932, -74572.73247403272, 4329.753734020427, -2341.4243576849567, -5555.485216633641, -172.87819728700106, -798.6979620852667, 856.8010146047068, -1780.8026309386028, 649.5717848685752, 65.62447326392157, 388.30062073400836, -353.1258883999071, -137.697950651705, 31.52142203119479, -106.39355730444561, 81.98057692092414, -63.14138686604906, 66.8688432765725, -31.850017336689234, -14.562814664564094, -114.9941249091529, 19.27422754978045, 6.86920436049806, -13.362968611123335, -88.88424698589336, -9.680549433746734, -6.256532059762719, -19.287322586292646, 30.85187752382363, -0.060728621664203786, -1.7204165771485123, 18.096287928493183, -5.394264557244732, 40.036620565000476, -33.18107886987201, 2.1644049971745574, -3.5496157331860445, 9.702406188567533, -7.574832588501394, 9.796433451870143, 2.157829321761511, -3.1218789726135014, 6.6756247366353705, -7.1588684345745435, -6.697268175137552, -1.4052090508045652, -1.9646060063565116, -5.4204105421624575, 3.32941670679557, -3.8499636318233144, -4.615352531498566, -0.07975953344401887, 3.391194367932755, -4.106358123047258, 1.501503218822819, 0.9563824343184066, -2.6973013366915453, 0.8798263076499495, -1.2664639901547048, 1.2677471291641744, 0.13775840341868673, -2.0083004655011223, 2.233635675897844, -1.9092080674585787, 1.3281780039048954, 1.7708225501106938, 0.11723884380987926, -0.7217945654510771, 0.020674104910288094, 0.6321921645490995, -0.12750860712933587, -0.7324806057772388, 0.387690081710673, 0.5704773577055064, -0.5561048571084157, 0.13303415142318897, -0.39533728660630274, -0.19314666767595423, -0.17136554860633169, -0.3105600644218782, 0.09227497024608411, 0.3640581811437116, 0.12456153887661969, -0.4900314009409783, -0.2105542507325282, -0.11287961723428896, -0.4896110545300445, -0.2576249538547408, 0.020036158749878297, 0.19004174677945684, 0.43512588848888356, -0.15984926722186188, -0.03699898168409543, -0.16184812575650298, -0.018640178199959223, -0.06970965394751483, 0.02644608400954951, 0.4184249457529603, 0.06710147780425979, -0.1455202420919477, -0.027435290436191195, 0.055771972451445606, -0.09475802435058256, 0.24207868559446766, -0.05282116924259128, -0.1882724966860181, -0.05346045629421603, -0.10831494984240475, -0.0036262226167114164, -0.026380022030597416, 0.020118181288705017, 0.03512820925391846, 0.029024371883522804, -0.050134402663047695, 0.01941571781524054, 0.00820689833365762, 0.059280726425585684, -0.07718365209846922, -0.05673269250273272, 0.03097365628437565, 0.0007247489018915587, 0.008388415516517256, 0.019782146741892603, 0.003491413958400358, 0.005668303566913835, 0.008251200563019978, 0.015433351818131769, 8569.462804077055, 110207.74548045057, -5580.675489894402, -16556.081670688596, 7127.260679195366, -3073.828080222762, -1533.6223502241664, -355.12453615848517, -3095.8145991120264, 3419.173147111548, -462.3992668019255, 767.4319579016992, 193.38944975465074, 765.3441796000723, 1206.3573187233806, -985.5982482136028, -68.43611425074259, 631.0814951043822, -164.5747087157133, -548.6313000921773, -17.28742329666784, -185.14272614898323, -301.7934771158025, 13.129032917435325, 426.25445611425835, -36.98503897759474, 171.80870563818803, -235.82426696359056, -104.66406861384758, -45.05415796610612, -57.035804549275085, 11.243808409245048, 226.0861750988662, 87.06034668681241, 226.13659839932183, -31.05627741881362, 137.017353871694, -22.09606218354719, -61.84479754602265, 9.281804818779563, 69.13222246695594, 14.953685829655399, 19.72953428673742, -8.50633905049753, -69.26317003286388, 68.59997387860506, 8.429564260027206, -22.0088568594102, 36.17330042090168, 10.14224063519464, 20.694946393299716, -13.765894996763393, 47.9578675896841, 20.88634039908581, -20.08033348427648, -35.83304355038709, 10.438408774002369, 16.703960158080577, -17.257272262902177, 7.24767784426956, -16.445868429185694, -6.459506216135367, -7.583209736174695, -7.424967425414934, -13.691886683439748, 13.759769935343964, -0.28962272720650617, 4.179507151822975, 5.495991536034838, -5.910085562916876, -4.495402254886741, -17.251946415263607, -7.5088084232758945, 0.2861310638409478, -1.724909330161772, -13.012981167554784, 0.7465398817959965, 0.39040114502450507, -8.510190850738638, -2.1734561670457992, 3.814313704739191, 6.301085071058026, 1.5829946098423662, -0.5739040504652735, -0.16851567357096542, -0.559070102327965, 5.953896400350025, -0.08670919671564548, -1.777658544527748, -1.2780307117751093, -7.7366740579612525, 2.941628771154086, -2.9826434804750477, -1.630390428822892, -1.299412772913584, 0.7235612346585683, 1.6978938383273743, -0.762647993478776, 3.12244956892987, -1.9199697406060068, 0.11326286898673033, 0.35268295877146727, -0.2980411399763483, -0.37567932737793974, -0.4367567129616674, 2.9578928249874394, -1.5239445261404256, 0.07515186625136394, 2.603235827947511, -2.530374109635005, -0.17294950942655873, 0.6022106900733917, 0.32141084439507495, 0.1665117656355406, 1.6368928504165652, 0.18938358119112308, -0.24353936276810373, 1.2329999761264787, -0.33273820223140405, 1.3847565668033965, -0.08146252908794249, -0.90685308494142, -0.26939685990941875, -1.7078436643569077, -0.4285370741975765, 0.45046573943715984, -1.2031998674743534, -1.3800719843157125]",-5.204782608695651,-3.5391891891891896,-5.309971428571429,-3.851028571428572,0.667,CB,DIO,100.0,PEDOT:PSS,PFN-Br,11.13,11.13,0.72,25.16,61.45