DA_mordred_pca,HOMO_D_eV,LUMO_D_eV,HOMO_A_eV,LUMO_A_eV,D_A_ratio_m_m,solvent,solvent_additive,annealing_temperature,hole_contact_layer,electron_contact_layer,PCE_percent,calc_PCE_percent,Voc_V,Jsc_mA_cm_pow_neg2,FF_percent
"[-98813.18249558842, 44397.737094422606, 12389.256050344027, 1362.0000136855158, 3319.2768587029664, 1018.6408948118324, -647.4693770045069, -2153.051334230561, 62.81352701616726, 945.5259419640521, 1002.6907845992322, 336.9849180259352, 213.57175708031693, 242.96619529618727, -457.02546208948934, 240.22395509469726, -647.7670656209565, 118.39875927894889, -155.899651637856, 197.97804508975386, -218.8001842223748, 108.51360711437518, 50.844631984767744, -111.09976516776975, -209.97849679520672, 216.7410000639367, 140.72328558508124, 51.73323691781199, -11.508337469063633, 3.170401194369319, 75.1391308872796, -59.231611527822004, 55.90976483195092, 80.48103063613321, 5.074495794540496, 39.07669603860806, 72.1217830362635, 28.87976860418847, -67.27508004137495, -19.875556417211296, -10.598784877667487, 23.72117646155207, -15.63188168545134, 13.859316318919618, -50.47532232018068, -49.559933163283546, -10.959144435132377, 24.46918734426105, 32.24532840686872, -13.59941698078093, -23.713678976166854, -14.624461362997245, -12.396298406576268, -1.5997233990020518, 22.255166233695565, -4.012688544154049, 4.529967558632781, 7.073037667964989, -5.852351795088975, -26.179008653602615, 7.1884788037712175, -7.24923509862748, -2.34171410038401, -0.5438138153205614, -0.5445189199654852, -8.347270373259644, 8.835154865643503, -4.726990320842891, -2.6324783216284295, -4.313535124619834, -1.5209888149751842, -0.5524131276820761, -5.173548567497374, 2.7973023895159823, 4.717409970912756, 1.2193064927579425, 3.9472891757771205, -3.7801050908966154, 2.6646933375127104, -0.7436909989565201, -3.45460668077596, -1.0435128891447931, -0.02462302755556145, -0.08685679346251529, 1.8925499332890112, -1.4717196335433265, -1.8828789244621733, 0.4750636740632004, 2.8354181200215036, 1.0058739609545775, 3.8893164627372236, 1.798072813908485, -2.4037456270758764, -0.5653935599389772, 0.9527355749282824, 2.9585656572737786, -0.4020252058099887, 0.11797154803829812, -0.396656962531333, 0.8142166599577333, -0.1574187471194044, -0.20522872909466172, -0.6464904291384375, 1.1603155562644716, 0.5843377908844172, 0.254568361781784, -0.17800445828635159, -0.25512643942941526, -0.05103939087380205, -0.629694613402231, 0.5204815751322922, 0.2900217531053988, -0.10727236675670293, 0.1882552949354599, -0.11790483328907442, -0.010610554777263137, 0.1357141285755734, 0.21861684029582218, 0.255307387563505, -0.24635242131349866, -0.2341379440780268, -0.37279284133399315, 0.20599144355643562, 0.06440139500309261, 0.0037343518476369297, 0.2255563756719603, -0.11005762332944169, 0.1440280183639775, -76311.35528636306, -105710.90070115658, 30397.694279576313, 5897.009959922281, -969.1845016522675, -3294.7801065921467, -2121.157019011185, 1516.972218412834, -1183.1284300410543, 1478.1204615252639, -553.4361750283961, 939.0252315602734, 1462.3768563933231, 465.0743583196419, 1058.4101007222343, -616.7427412115254, -249.0018572442901, -1367.0949678317716, 491.56116715185516, 586.0841676393476, -309.15948849824304, 293.8938843860726, 758.5557789962754, 59.838029205719636, 66.5203260165074, -469.68571917185193, -175.44235292202148, 240.25927598825814, -390.0953247657503, 382.5678089762574, 83.79274065376032, 76.25820725021742, 76.22262930256676, 64.11807490733156, 12.323811113315088, -15.616962085772812, -148.3028872760018, -179.72433097381935, -144.9419133357722, 75.74618854773439, -119.10071651845064, 5.957173629837598, -29.43573549130315, 10.260482505431327, 19.155019637973837, -10.709736191754601, 35.34607557233633, -96.41025319681518, -27.348670538454968, -26.176531150618985, 58.90002359495429, -39.19420282674247, -33.97916620311622, 2.8366917839807684, 1.6362542675650502, -20.58419081701635, 26.86245000555033, 7.626496580603714, -21.118325171292213, 1.5801580370867327, -0.792291270713946, 19.617835891933595, 17.987682160255616, -12.70031277067396, 15.882908714719122, 8.149900842994617, 7.9536994530933, 16.979058300648852, -4.271265983519873, 6.226233692642765, 7.666634494052289, -4.379344750144734, -4.809162706184594, 12.372894850367814, -0.8338688655830353, 9.186658992097222, 0.2835143600694323, -6.920555056827823, -8.304391235667907, -5.566546042749309, 0.6277204715419646, 4.835124504787856, 1.0854439442700254, 3.663413258203178, -4.401252604101927, 1.622892702485757, -0.0948677209952713, -5.278213891588365, 0.35203194221585576, -4.972678456171991, 4.926702480929535, 5.0076195718798715, -1.9425917627517322, -2.7864355674556123, 1.6982937601407002, -3.2391143262106468, -3.683049411617752, -1.2681147699913815, -2.673838277859943, -0.5531910542604237, -2.452543488535106, 0.876657294355514, -0.4792702203095558, 5.469741158312061, 6.98988999033012, 1.0417510947424091, -0.2333327043848783, -1.8268986048645637, 5.125038262113957, 4.425361651709828, 2.138752312105133, -3.1257366819480623, 3.141340468501241, -3.1025891611440457, 2.988613739406473, -4.773522406530958, -4.777928816797058, 2.297484784176085, -0.9564414753522215, -2.07988333148797, -5.041194375543534, -0.854866295556258, -3.5368600731417423, -1.5196320980237132, 1.8038815130746642, 2.1995937407775585, -0.034115469702882706, 0.006924427562161384]",-5.497142857142857,-3.6428571428571423,-5.59,-3.35,1.0,CF,DIO,100.0,PEDOT:PSS,PFN-Br,12.5,12.43,0.96,17.5,74.0
"[-98813.18249558842, 44397.737094422606, 12389.256050344027, 1362.0000136855158, 3319.2768587029664, 1018.6408948118324, -647.4693770045069, -2153.051334230561, 62.81352701616726, 945.5259419640521, 1002.6907845992322, 336.9849180259352, 213.57175708031693, 242.96619529618727, -457.02546208948934, 240.22395509469726, -647.7670656209565, 118.39875927894889, -155.899651637856, 197.97804508975386, -218.8001842223748, 108.51360711437518, 50.844631984767744, -111.09976516776975, -209.97849679520672, 216.7410000639367, 140.72328558508124, 51.73323691781199, -11.508337469063633, 3.170401194369319, 75.1391308872796, -59.231611527822004, 55.90976483195092, 80.48103063613321, 5.074495794540496, 39.07669603860806, 72.1217830362635, 28.87976860418847, -67.27508004137495, -19.875556417211296, -10.598784877667487, 23.72117646155207, -15.63188168545134, 13.859316318919618, -50.47532232018068, -49.559933163283546, -10.959144435132377, 24.46918734426105, 32.24532840686872, -13.59941698078093, -23.713678976166854, -14.624461362997245, -12.396298406576268, -1.5997233990020518, 22.255166233695565, -4.012688544154049, 4.529967558632781, 7.073037667964989, -5.852351795088975, -26.179008653602615, 7.1884788037712175, -7.24923509862748, -2.34171410038401, -0.5438138153205614, -0.5445189199654852, -8.347270373259644, 8.835154865643503, -4.726990320842891, -2.6324783216284295, -4.313535124619834, -1.5209888149751842, -0.5524131276820761, -5.173548567497374, 2.7973023895159823, 4.717409970912756, 1.2193064927579425, 3.9472891757771205, -3.7801050908966154, 2.6646933375127104, -0.7436909989565201, -3.45460668077596, -1.0435128891447931, -0.02462302755556145, -0.08685679346251529, 1.8925499332890112, -1.4717196335433265, -1.8828789244621733, 0.4750636740632004, 2.8354181200215036, 1.0058739609545775, 3.8893164627372236, 1.798072813908485, -2.4037456270758764, -0.5653935599389772, 0.9527355749282824, 2.9585656572737786, -0.4020252058099887, 0.11797154803829812, -0.396656962531333, 0.8142166599577333, -0.1574187471194044, -0.20522872909466172, -0.6464904291384375, 1.1603155562644716, 0.5843377908844172, 0.254568361781784, -0.17800445828635159, -0.25512643942941526, -0.05103939087380205, -0.629694613402231, 0.5204815751322922, 0.2900217531053988, -0.10727236675670293, 0.1882552949354599, -0.11790483328907442, -0.010610554777263137, 0.1357141285755734, 0.21861684029582218, 0.255307387563505, -0.24635242131349866, -0.2341379440780268, -0.37279284133399315, 0.20599144355643562, 0.06440139500309261, 0.0037343518476369297, 0.2255563756719603, -0.11005762332944169, 0.1440280183639775, -43708.49783727524, -22703.83375032558, 3376.007027157224, -1688.9903058226364, -10171.888914951109, -4799.994577194549, 2382.676268919604, -77.40394104108304, 295.588300545925, 964.266555873188, -712.5213493293368, 1035.4938467436164, -1022.4958786448967, 418.6583470690946, 1338.7299339601361, -114.84219657348547, 91.11373700767663, -265.8046374080451, 178.35866792118577, 1273.3469708860741, -1116.3876136868353, 424.66935456626976, 793.0112251321391, -438.43621040052983, -209.99654213900533, -409.18213438181215, 385.63904117104767, 18.7381260764186, -91.69125704000447, 374.3697061986498, 127.00749423621217, 85.85108818672455, 59.82806615990404, -6.151594209998109, -21.30787263763341, -41.64601160453063, -70.85098823237107, -89.24769375871043, -126.31264408569251, 113.82061566363838, -16.331843013616606, 21.340848517158904, 1.672051959941271, 75.8074208843631, -5.010253202782735, -0.8432715856532553, 11.012855801907705, -81.81257497782178, 10.706454310964844, -10.523134377551202, -0.9798050189795653, -9.200407575198568, -49.3646740840167, 11.779491087402917, 7.868067377416395, 2.8894136524070717, 26.939650494633113, -0.37672263765951186, -28.337589564808297, -14.536306265404164, -7.32924027480848, 7.96735122909071, 22.97911443996081, -0.7763329766760414, 6.094013001182411, 10.649690499463688, 11.50419227968769, 6.6712415682614585, -6.929618402208452, 3.9742994354617167, -12.579685740574028, 0.8390861257456601, 4.54873630665606, 13.53930416182086, -2.5085926860122214, 2.3038177003820124, 15.72060541311968, 0.4104005990837081, -2.772886184375082, 3.8175819594614957, -4.056120244590863, 9.727867048877446, -1.2572848800508218, -5.9083322546009285, -4.631087393345098, -2.4573480788367235, 2.5141234145818014, -1.455314331851035, -1.942853600473852, -8.288302535453564, 1.1621085601565326, 0.681169847911363, -2.0332584543531596, -1.3672999061249271, -3.2875819448833603, 3.8706389460834796, 0.6180913977391107, -2.8071602430062335, -2.0507360611834278, 4.566157348216244, -3.357122730823962, 0.12107627975246371, 3.0340140826743465, 1.1660351648712002, -4.5066255095940875, -2.7506066549312287, -0.35734785518584733, -3.233739332406296, -0.6424847336232737, 0.4475883994164711, -1.8236718181022447, -1.163402408712951, -0.704518580608827, -1.5641462625854992, -0.27133219179043433, -0.12904468336042996, -0.5467616308595566, 3.124512178166846, 1.00174447309481, 0.7491479423173608, 0.5685704082362717, 0.48779414244603203, 0.3175073949272438, -0.4588688052784722, 0.060944957550900014, 0.5052617966454322, -0.5684972831402533, -0.9817451944973374]",-5.497142857142857,-3.6428571428571423,-5.56,-3.32,1.0,CF,DIO,100.0,PEDOT:PSS,PFN-Br,5.6,5.59,1.0,13.0,43.0
"[-105631.73783275932, -74572.73247403272, 4329.753734020427, -2341.4243576849567, -5555.485216633641, -172.87819728700106, -798.6979620852667, 856.8010146047068, -1780.8026309386028, 649.5717848685752, 65.62447326392157, 388.30062073400836, -353.1258883999071, -137.697950651705, 31.52142203119479, -106.39355730444561, 81.98057692092414, -63.14138686604906, 66.8688432765725, -31.850017336689234, -14.562814664564094, -114.9941249091529, 19.27422754978045, 6.86920436049806, -13.362968611123335, -88.88424698589336, -9.680549433746734, -6.256532059762719, -19.287322586292646, 30.85187752382363, -0.060728621664203786, -1.7204165771485123, 18.096287928493183, -5.394264557244732, 40.036620565000476, -33.18107886987201, 2.1644049971745574, -3.5496157331860445, 9.702406188567533, -7.574832588501394, 9.796433451870143, 2.157829321761511, -3.1218789726135014, 6.6756247366353705, -7.1588684345745435, -6.697268175137552, -1.4052090508045652, -1.9646060063565116, -5.4204105421624575, 3.32941670679557, -3.8499636318233144, -4.615352531498566, -0.07975953344401887, 3.391194367932755, -4.106358123047258, 1.501503218822819, 0.9563824343184066, -2.6973013366915453, 0.8798263076499495, -1.2664639901547048, 1.2677471291641744, 0.13775840341868673, -2.0083004655011223, 2.233635675897844, -1.9092080674585787, 1.3281780039048954, 1.7708225501106938, 0.11723884380987926, -0.7217945654510771, 0.020674104910288094, 0.6321921645490995, -0.12750860712933587, -0.7324806057772388, 0.387690081710673, 0.5704773577055064, -0.5561048571084157, 0.13303415142318897, -0.39533728660630274, -0.19314666767595423, -0.17136554860633169, -0.3105600644218782, 0.09227497024608411, 0.3640581811437116, 0.12456153887661969, -0.4900314009409783, -0.2105542507325282, -0.11287961723428896, -0.4896110545300445, -0.2576249538547408, 0.020036158749878297, 0.19004174677945684, 0.43512588848888356, -0.15984926722186188, -0.03699898168409543, -0.16184812575650298, -0.018640178199959223, -0.06970965394751483, 0.02644608400954951, 0.4184249457529603, 0.06710147780425979, -0.1455202420919477, -0.027435290436191195, 0.055771972451445606, -0.09475802435058256, 0.24207868559446766, -0.05282116924259128, -0.1882724966860181, -0.05346045629421603, -0.10831494984240475, -0.0036262226167114164, -0.026380022030597416, 0.020118181288705017, 0.03512820925391846, 0.029024371883522804, -0.050134402663047695, 0.01941571781524054, 0.00820689833365762, 0.059280726425585684, -0.07718365209846922, -0.05673269250273272, 0.03097365628437565, 0.0007247489018915587, 0.008388415516517256, 0.019782146741892603, 0.003491413958400358, 0.005668303566913835, 0.008251200563019978, 0.015433351818131769, -44306.656448967886, -43672.77614371246, 1316.0816049956188, 2950.775750798506, -1872.4685668108687, -9317.982084091549, 1899.8268699070431, -2603.284504669837, 965.8893076719492, 1857.6088824844169, -3249.0088345096055, 960.4767681237322, -1082.8095362573558, 500.6208761287088, 729.8899215926492, 516.3873378628222, 110.09258163618988, -315.88578813746085, 164.54094542198064, 10.37569751474632, -115.88836309763076, -289.55124531930346, -826.2927187264543, -573.3990703490991, -20.266337001036618, 622.0854848137959, -546.6984761304058, -747.2141080880813, 381.6211702559554, 186.7289298938128, -87.20630593939491, -56.66634895121339, -364.46704669853443, 65.58457150576834, 73.48908056849105, -152.5022864468546, 222.24438532122818, -147.7525413603006, -181.25354107679786, 297.3946706579023, -179.09137138790845, 109.80879461750763, 140.46289192921182, 41.46118493245822, -87.21237342959697, -116.85924647940485, -45.61003996140307, -20.356235770103567, -2.2915870771242766, -25.112273125718325, -0.28218039931176264, 63.30200090131899, -27.40723561156193, -10.999573992401523, -29.034898048022512, -10.604474724264335, 58.48877549112376, -5.223862097662007, -16.43009426343275, 31.459466021076025, -14.505272399549831, 14.344531970029365, 15.565966447152974, -11.932187880114384, 7.374293343721149, 17.537872855808843, -24.708578028970894, -4.80733237952936, 8.474093764694336, -12.656532514125416, 5.1011358853892155, -0.6210194398122414, -3.4522659240653013, -23.133969544274688, 21.12253817110384, -5.154991523324625, -3.529783129784281, -8.48202717319758, 14.752865233676431, 6.026830829152125, 1.4221241761189227, -15.418753745992433, 21.421856098998525, 14.472664493095913, 0.2905135037476043, 4.0947055338426495, -19.341003322041857, -0.12852013420492625, -10.517772858582989, 5.012971099296683, 1.418610187400649, -0.3915107488807763, 7.4604368854983605, -7.625640914684233, -2.526698544638961, 2.131678214087918, 1.6056020581208479, 4.312588290723033, 5.165540287822624, -1.1807709866831004, -0.8875384233783024, -4.550213750935516, 0.25180827500274194, 0.08579412590414215, -1.0923680166524825, 1.1231516194776487, 1.230764326577022, 1.0265490402607096, 0.88243118620447, -1.1869696767286904, 2.0256487914814194, -2.54211374369444, 3.0357339155455847, 2.084036072491969, -3.1679303658677087, -1.0821927151230604, -0.11789164125526952, -1.2799270958163032, -2.2827110413186062, -2.2841536899053096, -1.303452392537984, 1.480031874336638, -1.271952515196475, 2.762396400811287, 1.4541737830690455, 0.8881638522472954, -2.329522753587696, 0.8355632248699756]",-5.204782608695651,-3.5391891891891896,-5.586666666666666,-4.083333333333333,0.667,CB,DPE,25.0,MoOx,ZnO,3.97,3.99,0.826,9.29,52.0