DA_mordred_pca,HOMO_D_eV,LUMO_D_eV,HOMO_A_eV,LUMO_A_eV,D_A_ratio_m_m,solvent,solvent_additive,annealing_temperature,hole_contact_layer,electron_contact_layer,PCE_percent,calc_PCE_percent,Voc_V,Jsc_mA_cm_pow_neg2,FF_percent
"[-105631.73783275932, -74572.73247403272, 4329.753734020427, -2341.4243576849567, -5555.485216633641, -172.87819728700106, -798.6979620852667, 856.8010146047068, -1780.8026309386028, 649.5717848685752, 65.62447326392157, 388.30062073400836, -353.1258883999071, -137.697950651705, 31.52142203119479, -106.39355730444561, 81.98057692092414, -63.14138686604906, 66.8688432765725, -31.850017336689234, -14.562814664564094, -114.9941249091529, 19.27422754978045, 6.86920436049806, -13.362968611123335, -88.88424698589336, -9.680549433746734, -6.256532059762719, -19.287322586292646, 30.85187752382363, -0.060728621664203786, -1.7204165771485123, 18.096287928493183, -5.394264557244732, 40.036620565000476, -33.18107886987201, 2.1644049971745574, -3.5496157331860445, 9.702406188567533, -7.574832588501394, 9.796433451870143, 2.157829321761511, -3.1218789726135014, 6.6756247366353705, -7.1588684345745435, -6.697268175137552, -1.4052090508045652, -1.9646060063565116, -5.4204105421624575, 3.32941670679557, -3.8499636318233144, -4.615352531498566, -0.07975953344401887, 3.391194367932755, -4.106358123047258, 1.501503218822819, 0.9563824343184066, -2.6973013366915453, 0.8798263076499495, -1.2664639901547048, 1.2677471291641744, 0.13775840341868673, -2.0083004655011223, 2.233635675897844, -1.9092080674585787, 1.3281780039048954, 1.7708225501106938, 0.11723884380987926, -0.7217945654510771, 0.020674104910288094, 0.6321921645490995, -0.12750860712933587, -0.7324806057772388, 0.387690081710673, 0.5704773577055064, -0.5561048571084157, 0.13303415142318897, -0.39533728660630274, -0.19314666767595423, -0.17136554860633169, -0.3105600644218782, 0.09227497024608411, 0.3640581811437116, 0.12456153887661969, -0.4900314009409783, -0.2105542507325282, -0.11287961723428896, -0.4896110545300445, -0.2576249538547408, 0.020036158749878297, 0.19004174677945684, 0.43512588848888356, -0.15984926722186188, -0.03699898168409543, -0.16184812575650298, -0.018640178199959223, -0.06970965394751483, 0.02644608400954951, 0.4184249457529603, 0.06710147780425979, -0.1455202420919477, -0.027435290436191195, 0.055771972451445606, -0.09475802435058256, 0.24207868559446766, -0.05282116924259128, -0.1882724966860181, -0.05346045629421603, -0.10831494984240475, -0.0036262226167114164, -0.026380022030597416, 0.020118181288705017, 0.03512820925391846, 0.029024371883522804, -0.050134402663047695, 0.01941571781524054, 0.00820689833365762, 0.059280726425585684, -0.07718365209846922, -0.05673269250273272, 0.03097365628437565, 0.0007247489018915587, 0.008388415516517256, 0.019782146741892603, 0.003491413958400358, 0.005668303566913835, 0.008251200563019978, 0.015433351818131769, -38756.00658084278, -2422.115195042066, -3123.4350181098202, -3787.032069221978, -9335.149702712057, -6551.763195902065, 557.2620448855046, -92.98043320448141, 2020.0422360255643, -266.95880852962796, 324.90466688088713, 865.8422953292475, -868.4884147752363, 2042.8198626932242, 1161.9005073029784, -730.609117745289, -251.92266607341253, -26.301208669764236, 106.74792335126799, 1153.7140346946826, -312.7824644045363, 359.61879355708163, -15.646329689463094, -72.23394619124572, -607.4530944026469, -14.34831389212728, 434.16749799424747, 82.65713010945481, 69.57835921874187, -106.16668718289708, -31.064489957772324, -170.35975942313488, 23.348760721106835, 42.35272782793295, -225.49988605283772, -241.59932842461012, -62.00249044271813, 262.5052086726565, -68.86219322129264, 29.2999607115319, 9.78640763822686, 169.211259754267, -20.597599346125246, -105.08696522085397, -4.70259378587295, -67.61419950136201, -0.9651729099665758, 109.47358796406506, 3.7301787486765647, 25.24482733493408, 21.25952462259885, -55.858015369664145, 27.56585895487814, -8.71265551391998, 35.51662642515079, 14.282914525903674, 17.752735265974497, -38.54511546075814, -52.08574075214678, -24.626704551052427, -53.33082502673932, 17.650559238443208, 45.94662468791002, -2.1016129611879544, 21.211803544356655, 9.450095864799547, 25.660534512932824, 16.86939992776909, 29.169562031314168, 7.019976031004809, -10.62526510850293, 0.18449136815732547, 22.37699004730174, -10.132857117735044, -3.0691322135545107, -9.66545727290131, 11.534771957466901, -1.4851876805617379, 2.6850639653498938, -1.3094672344935505, -3.2762989768487962, 2.1323305389203053, -0.04190386421809578, -11.408643975076432, -13.85094116102722, -5.864365389607244, -9.928800634822533, 2.678663607585639, 10.335050657447955, 1.3727356730401974, -3.5541458117019085, -2.21571447175261, 5.879252616936393, 5.561427484051239, -3.8075750937384, 4.1619975304168, 8.661295423833288, -1.6371163990150324, 0.05971831775796499, 7.310475914493937, -0.1304181006636771, -0.2569703862344488, 0.23842006331516075, -12.960588185422333, 4.7520740370337435, -0.12747510635622916, 0.8792415208435429, -4.139309121680876, 7.1675905025229, -1.3970220711906673, -0.24534101850703927, 1.5818392342693999, 0.26703193665508884, -2.745317134282523, 0.4996755464649203, -2.8302761910097654, 1.4889403726354837, 1.7793597671247925, -4.3653192943920445, -3.118732778057515, 0.12993486798805964, -0.730478479950271, -0.11483531984489126, 0.6954922631283749, 1.3328897378054476, 0.11126921671017131, 1.4404393280868348, 1.8785450666062986]",-5.204782608695651,-3.5391891891891896,-5.73,-4.08,1.0,CF,_,100.0,PEDOT:PSS,PNDIT-F3N-Br,5.5,5.48,0.73,13.02,57.7
"[-105631.73783275932, -74572.73247403272, 4329.753734020427, -2341.4243576849567, -5555.485216633641, -172.87819728700106, -798.6979620852667, 856.8010146047068, -1780.8026309386028, 649.5717848685752, 65.62447326392157, 388.30062073400836, -353.1258883999071, -137.697950651705, 31.52142203119479, -106.39355730444561, 81.98057692092414, -63.14138686604906, 66.8688432765725, -31.850017336689234, -14.562814664564094, -114.9941249091529, 19.27422754978045, 6.86920436049806, -13.362968611123335, -88.88424698589336, -9.680549433746734, -6.256532059762719, -19.287322586292646, 30.85187752382363, -0.060728621664203786, -1.7204165771485123, 18.096287928493183, -5.394264557244732, 40.036620565000476, -33.18107886987201, 2.1644049971745574, -3.5496157331860445, 9.702406188567533, -7.574832588501394, 9.796433451870143, 2.157829321761511, -3.1218789726135014, 6.6756247366353705, -7.1588684345745435, -6.697268175137552, -1.4052090508045652, -1.9646060063565116, -5.4204105421624575, 3.32941670679557, -3.8499636318233144, -4.615352531498566, -0.07975953344401887, 3.391194367932755, -4.106358123047258, 1.501503218822819, 0.9563824343184066, -2.6973013366915453, 0.8798263076499495, -1.2664639901547048, 1.2677471291641744, 0.13775840341868673, -2.0083004655011223, 2.233635675897844, -1.9092080674585787, 1.3281780039048954, 1.7708225501106938, 0.11723884380987926, -0.7217945654510771, 0.020674104910288094, 0.6321921645490995, -0.12750860712933587, -0.7324806057772388, 0.387690081710673, 0.5704773577055064, -0.5561048571084157, 0.13303415142318897, -0.39533728660630274, -0.19314666767595423, -0.17136554860633169, -0.3105600644218782, 0.09227497024608411, 0.3640581811437116, 0.12456153887661969, -0.4900314009409783, -0.2105542507325282, -0.11287961723428896, -0.4896110545300445, -0.2576249538547408, 0.020036158749878297, 0.19004174677945684, 0.43512588848888356, -0.15984926722186188, -0.03699898168409543, -0.16184812575650298, -0.018640178199959223, -0.06970965394751483, 0.02644608400954951, 0.4184249457529603, 0.06710147780425979, -0.1455202420919477, -0.027435290436191195, 0.055771972451445606, -0.09475802435058256, 0.24207868559446766, -0.05282116924259128, -0.1882724966860181, -0.05346045629421603, -0.10831494984240475, -0.0036262226167114164, -0.026380022030597416, 0.020118181288705017, 0.03512820925391846, 0.029024371883522804, -0.050134402663047695, 0.01941571781524054, 0.00820689833365762, 0.059280726425585684, -0.07718365209846922, -0.05673269250273272, 0.03097365628437565, 0.0007247489018915587, 0.008388415516517256, 0.019782146741892603, 0.003491413958400358, 0.005668303566913835, 0.008251200563019978, 0.015433351818131769, 9826.62501852374, 143880.19469238477, -2222.363953223393, -13952.123355584112, -2514.1599147254055, -5427.680970323972, -3049.9215684985247, 2033.9527017127975, 1166.746908214222, 2326.051367950771, 1567.8058456216804, 1271.630775807469, 1630.019974292843, 1163.7748622896074, 932.2534237755607, -172.32528099327646, -356.84439232343567, -724.2527910470671, 1655.7020114749953, 920.707996833319, 542.3551312755126, 470.73583702031215, 716.7468030880427, -514.7999201976737, 113.40647559930335, -141.08934775627688, 64.15696897065197, 400.12362451971603, 369.17247441804375, -31.61623345526624, -61.26379049220764, -62.813709885643675, -151.52150169053823, -147.22601758618566, -35.86293505789092, -89.28263918484573, -58.08689462696884, 187.98518766157184, -200.5585136486939, 13.177508359480953, 143.0049690381489, 241.95095738117107, -58.205770407676084, -47.42461506090237, 41.8711867757649, -147.0176378056209, 52.128702569254045, 105.52895536346693, 20.55683273713626, -62.50620527489778, 61.18194425355229, -26.0362070946789, 54.53455909337055, 5.649377360742335, 20.13164932902282, -7.009553533607516, -52.89502147472686, -24.737115361386827, 39.32715613480843, 4.681455759926337, -11.242185180840622, 31.35828332465004, 28.360378908364936, -14.264991985511159, 13.930157380926431, -21.427012326135063, 16.46548086899783, 9.11661218781402, 18.052708937638567, -5.850765508090063, 0.17038654811969423, -6.081800397906241, -6.298946571688617, -34.34086288532173, 5.332740219866437, -14.381594328186253, -1.4621299150002258, -9.58921818062997, -2.4807384137312454, 7.885761834446086, 3.231084956898213, -2.546411780298442, 2.4355837628104666, -7.751528360989425, -4.857761197830953, 1.6709935782218395, -5.93233751637451, -1.2641236493030306, 7.158492764796286, 0.5906638578631132, 1.2380632085499315, -2.3056662377460952, -2.1342765575176657, -1.1436671415403623, -3.3568187053293883, -4.727339233135702, -1.1549784137093155, -1.2630247627500033, -2.136642549557452, -0.7316441907601074, -0.8770440820201202, -3.502330722848292, 2.6262157061590354, -5.665395174342102, 5.5559209326501104, -0.33872856500103055, -2.985128873961724, -6.185584578283368, 3.0573011557141, -4.655848966766925, -0.6392644071287421, -0.6288911191018798, -2.2979142694951804, 0.3490935196640592, -0.17406189538411354, -0.2896293890602166, 1.0696766765216523, -1.6193781153968274, 3.510578008916717, -0.6941648127294471, 2.1577023444654264, -1.9049249287740704, -4.267492433209865, 1.2356273569660985, -1.0559916720911993, 1.06929750155183, -3.330766162412459, 2.200641066506705]",-5.204782608695651,-3.5391891891891896,-5.58,-4.06,1.0,CF,CN,100.0,PEDOT:PSS,PNDIT-F3N-Br,6.6,6.56,0.87,14.67,51.38
"[-96218.45766618998, 38190.55941397739, 9341.19863978244, -298.0321681723599, 3837.039845288656, -633.0815150821412, -1318.980794355729, 952.285808193773, 528.6042339012306, -265.75996339509254, 85.60403763240663, 327.51410203292335, 339.9238825739942, -217.3938336123946, 80.63195135367053, -89.32083633853233, 32.19492584684396, -21.519530699055707, -3.6266113552724115, -73.04368468656011, 86.79421267883791, 28.9157151412623, 61.36551771993493, -20.29937758864763, -20.5145225649866, 1.7418865694839667, -22.377181673057002, 12.371971410300219, 34.95291732805864, 10.187903617561325, 15.16604348820858, 8.612060636243209, -1.1743635221400766, 7.0376682218726625, -4.093627003889395, 9.922048209550361, -15.554840299560915, -5.613674452998811, -0.2972665085945745, 4.368352481075529, -3.6043195792310403, 1.354200703685919, 2.8516893216669104, -4.255469010620061, 8.299974464104451, 1.2791418187815111, 1.2654639155740988, -2.171801897186288, 0.7563528622149089, 1.6309678283868045, 0.8461705305940708, 3.200150728577338, 4.514637663770485, 2.047832060332592, 0.988495732690156, 3.0209744065138135, -1.0787642655477623, -0.5848165573459294, 0.7450505682325215, 0.7138952097940852, -0.4513392507860554, 0.44000043161623736, 0.9076636698868725, -0.7553614212014921, -1.1367214236829248, 1.4883333004282742, -0.6534390261587824, -0.2020478861539523, 0.5979438493412772, 0.35044047212350127, 0.5920200016964907, -0.4545510567545348, 1.2436977886366634, 0.06188974879205844, 0.28770923066137755, 0.34025436763747585, 0.054350949740208376, 0.15963437295462057, -0.5109982693033068, 0.3735134387368202, 0.6870145153430531, 0.38216412404326583, -0.20553217795980494, -0.08297866327442271, -0.09481622405384194, -0.0074888306561717854, 0.442508262678758, 0.06098427500299941, -0.4139541096843904, 0.14832844029545988, -0.294554145147611, 0.015892796356977712, 0.1548609075275289, -0.005654655004061704, 0.07842930267586645, -0.20841896255037717, 0.07855635365402769, 0.01820150849557578, 0.012441639298426566, -0.05940224021880214, 0.12084591158474112, 0.026787833651969892, 0.019668535058581682, 0.05537380493890609, -0.03933624965050253, 0.009307974571203914, -0.023474896973407267, 0.020049719383548492, 0.003215210697313786, -0.04194589694978035, 0.04089452902605473, 0.02749361263995076, -0.07262298298187164, 0.015379054954234306, 0.0506532373375812, 0.01506994111025417, -0.02377975685210143, 0.009711782809699865, -0.04845640783987859, 0.03322037544939782, -0.008444174408285043, -0.002255075440015908, 0.022455666638478533, -0.005795103590370054, 0.02421124183525336, 0.01760123567103644, -0.016655303062377946, 0.018813816162650987, -38756.00658084278, -2422.115195042066, -3123.4350181098202, -3787.032069221978, -9335.149702712057, -6551.763195902065, 557.2620448855046, -92.98043320448141, 2020.0422360255643, -266.95880852962796, 324.90466688088713, 865.8422953292475, -868.4884147752363, 2042.8198626932242, 1161.9005073029784, -730.609117745289, -251.92266607341253, -26.301208669764236, 106.74792335126799, 1153.7140346946826, -312.7824644045363, 359.61879355708163, -15.646329689463094, -72.23394619124572, -607.4530944026469, -14.34831389212728, 434.16749799424747, 82.65713010945481, 69.57835921874187, -106.16668718289708, -31.064489957772324, -170.35975942313488, 23.348760721106835, 42.35272782793295, -225.49988605283772, -241.59932842461012, -62.00249044271813, 262.5052086726565, -68.86219322129264, 29.2999607115319, 9.78640763822686, 169.211259754267, -20.597599346125246, -105.08696522085397, -4.70259378587295, -67.61419950136201, -0.9651729099665758, 109.47358796406506, 3.7301787486765647, 25.24482733493408, 21.25952462259885, -55.858015369664145, 27.56585895487814, -8.71265551391998, 35.51662642515079, 14.282914525903674, 17.752735265974497, -38.54511546075814, -52.08574075214678, -24.626704551052427, -53.33082502673932, 17.650559238443208, 45.94662468791002, -2.1016129611879544, 21.211803544356655, 9.450095864799547, 25.660534512932824, 16.86939992776909, 29.169562031314168, 7.019976031004809, -10.62526510850293, 0.18449136815732547, 22.37699004730174, -10.132857117735044, -3.0691322135545107, -9.66545727290131, 11.534771957466901, -1.4851876805617379, 2.6850639653498938, -1.3094672344935505, -3.2762989768487962, 2.1323305389203053, -0.04190386421809578, -11.408643975076432, -13.85094116102722, -5.864365389607244, -9.928800634822533, 2.678663607585639, 10.335050657447955, 1.3727356730401974, -3.5541458117019085, -2.21571447175261, 5.879252616936393, 5.561427484051239, -3.8075750937384, 4.1619975304168, 8.661295423833288, -1.6371163990150324, 0.05971831775796499, 7.310475914493937, -0.1304181006636771, -0.2569703862344488, 0.23842006331516075, -12.960588185422333, 4.7520740370337435, -0.12747510635622916, 0.8792415208435429, -4.139309121680876, 7.1675905025229, -1.3970220711906673, -0.24534101850703927, 1.5818392342693999, 0.26703193665508884, -2.745317134282523, 0.4996755464649203, -2.8302761910097654, 1.4889403726354837, 1.7793597671247925, -4.3653192943920445, -3.118732778057515, 0.12993486798805964, -0.730478479950271, -0.11483531984489126, 0.6954922631283749, 1.3328897378054476, 0.11126921671017131, 1.4404393280868348, 1.8785450666062986]",-5.297714285714285,-3.4170000000000003,-5.73,-4.08,1.0,CF,CN,100.0,PEDOT:PSS,PNDIT-F3N-Br,8.99,9.02,0.79,15.88,71.91