DA_mordred_pca,HOMO_D_eV,LUMO_D_eV,HOMO_A_eV,LUMO_A_eV,D_A_ratio_m_m,solvent,solvent_additive,annealing_temperature,hole_contact_layer,electron_contact_layer,PCE_percent,calc_PCE_percent,Voc_V,Jsc_mA_cm_pow_neg2,FF_percent
"[-34337.000759001305, 47741.76031069572, -14207.290273105922, 6951.418887058154, -5432.2129927409505, 3509.9474588974163, -2893.8393159559664, -1049.5454835651008, 2154.86929516714, -603.1012428689594, 809.1335266001734, -833.2703282084067, 478.7478452325274, -609.0537697911, 483.3468887985415, -922.5801089635, 443.68552180344113, 171.30573831940205, -79.6441624557536, -775.5856228819148, -834.4484319131552, -155.76987792173998, 166.68517188037606, -332.75941468069703, -60.234428893773895, -610.0549046707379, -133.05746030093138, -228.4482498073075, -134.41446581021438, -112.69009439949573, 240.89992661225173, -106.83752745323062, -157.89817636008942, -149.1649649543056, 217.79648342029782, -12.750020998303683, -190.47329506624965, -25.391985845634224, -152.83661511080066, 29.097182654996956, 49.87808162516432, 53.83604482198774, -114.76673528270838, 55.4530399161323, -15.197466699395477, 45.047619665647815, 58.89483800293165, -71.19820060168638, -31.657600508064448, -73.61781493503938, 35.11797272143971, -32.089034734119565, -84.3426513067252, -65.10158250808047, -36.078461962043, -8.747856570355914, 63.6963638157721, -1.2799265397259951, 4.727423873685865, -11.52577444622824, 3.05572054303601, 41.72037138127382, 38.60874504532009, 12.220930815768725, -13.748054016389627, -5.380533078638901, -5.387858995142281, -7.225042339974813, -5.947792387562586, 12.029329012118982, -15.577661041098612, -10.80627330363172, 30.36769611433537, -7.993327556027303, 3.8299453997018276, 0.6265009218707505, -11.472356734660238, -12.144010791370862, -2.1751157357293898, 3.7655756107560023, -2.8533233063192682, -15.653620067889314, -13.050079322199444, 2.034486078377686, -6.192219145494747, -14.261235132859191, -3.944285916592092, 8.298773751383578, 3.4006273203150155, 3.6020907659529477, -3.1743387175050657, 7.558321049490431, -4.3465522263539285, -11.652424600437762, 0.10538257318771649, -7.763039813255681, -4.08663812560618, 3.127213817615832, -9.47887590703813, -2.656753723754303, -1.1895018180798829, -1.0664088807670584, 0.6435416831616081, -4.975797295745032, -5.784994450944165, 2.515038171849021, -2.5056951913857795, -0.5393421371317215, 1.5939497554254674, -4.825218242759773, -1.6385555006305168, -2.235341251890981, -1.3700689688837189, -0.3886261770549275, -1.070030187353595, -3.4246369683611757, 1.3628975259200153, 4.540533758184887, -1.2176347223650659, -1.873182619150655, -0.09572770087094895, 1.0517159878874303, 0.8290944192371636, 0.7677256920243885, 0.19887199307667203, -2.17385572965285, -2.2716860814665587, 0.41948370761799225, -35133.7948384405, -8229.633002095004, -12056.006677875394, 2789.4971387186242, -6137.391894299175, 347.2184125819449, 313.56897363838834, -763.0529003245208, -753.2713027045285, -463.7277561870353, 442.3965848250751, 144.76451622384843, -82.11980750356622, -241.51593372271438, -166.11661214239564, 161.0117266220481, 156.82867720048182, 45.04865333330787, -64.48252064437057, -23.748315205729725, 175.35196382208807, 75.91403661606171, -286.96291437231935, 32.43950758749915, 86.82629792655737, 17.332913738685377, -52.109964316334626, 147.96654517479746, -66.74616426635947, -30.131339361474026, -64.6842293414586, -20.401781789495175, -60.814467118058936, -33.126806506498966, -10.042152655421425, -51.312256336249625, 3.144366245462294, -3.71627624153237, 36.40376072528973, 0.4548085410526568, 8.77647477218483, -28.125389876423775, 2.49569238193056, -12.913454340121639, 4.879924205036842, -2.3377624767900205, -6.672954601090133, 6.202739337502919, -10.893634984359561, 12.032465269856662, -12.063043989303566, -0.34303639091355365, 5.016332629152714, 0.12086901313429266, -9.726503251923347, 6.137316418082435, -7.076062334661124, 7.3653218625323404, 3.5070409455817924, 2.301233891752652, 4.71929931757742, -1.926768238609477, -5.728496834707801, 0.05692591901005528, -4.227503980921206, 0.19035190488374848, -0.8161738905036682, -0.4714746073762517, 0.016165936440852846, 1.5320458160517845, -3.625921731256579, -1.3255082942715024, 1.0395488339674301, -2.629665545987187, 0.2524077098567754, -0.25955818195747327, -0.9738252465763915, -0.4436497764515863, 0.3498051835956417, -0.5126149363315342, -1.3513245580317377, 0.2982577901396226, 2.0905817811936993, -1.423686297008441, -0.5684747340003078, 0.06286388557579237, 1.556243536792186, 0.47664310848808533, 1.3381005503037402, 1.3274012761810585, -0.18103683328045683, 0.13158711423599634, -0.35216959119522606, 0.24205021276454275, -0.19716096928100413, 0.3411096425350699, 0.8983261097286253, -0.17492589746772325, -0.26859509238574053, -0.13780411398829884, 0.2481245213135157, -0.23952231622609954, -0.5478870274515413, 0.5484971724321479, 0.500298126046161, -0.06133469645540579, -0.3248140481935957, 0.313231347131103, 0.63465776568537, 0.5975958356568718, -0.21144062004099506, -0.6749983329678217, -0.32992632468938865, 0.3033181272449559, -0.12238950451054809, 0.06097724241096092, 0.2639722379565246, -0.2236154184593273, 0.06848499166746613, -0.30866773947200965, -0.13429432396519503, -0.2605157287139417, 0.0014308004863301527, 0.11389554910299449, -0.08035043575031331, -0.3428563737769905, -0.05785525732550667, -0.006029155567380151]",-5.37,-3.47,-5.574146341463415,-3.915,1.0,CB,_,140.0,ZnO,MoOx,10.5,10.48,0.89,19.0,62.0
"[-40379.550777858196, 56004.069127593044, -10651.726564434246, -16787.81031422943, -4899.992121591016, -824.7283886742232, 3213.3355032253107, -1470.288885595245, 254.4377968009814, -1413.1146630484025, -524.4083602292874, -562.997720813155, -39.53950048797216, -237.61809197268883, 180.52903723581315, -190.73776488072147, -330.80306712396464, 99.72719854979664, -38.288725474699014, -15.193302786029136, -8.532246059522224, 145.04616544768794, 14.962058909511939, 123.04398183642466, 62.852427505583, -16.118058857090944, -46.56859833906233, -0.5575523560657274, -6.36498680353148, 16.394816676055783, 87.85016416866046, 16.04209532118321, 6.728058072640266, 31.819933043206213, 7.247524520540111, -16.595924642037062, 22.429503825143726, -34.30752403737112, -22.117717401179593, -42.53762441373334, 28.137558748772225, 2.22131123168802, 10.678808593591533, -14.694404223731631, 5.672198985063375, -1.6746084012166627, 3.5448396296069937, 4.439322415982939, 2.361717827741181, -7.79091708674293, -7.799464018746011, -0.06700113902227045, 6.275440131612939, 1.6816512012129223, 7.516755854741788, -1.3196602414838896, -1.599423863335157, 0.8523744266797966, 6.5919953227931884, -1.9930726417356155, 2.4730446865395805, -4.86740547502367, -1.6841737660247347, 1.6586533064853555, -0.8074568835944604, -3.2367193878033773, -2.1849438483133383, 0.21206456314353517, 3.0809245279681186, -0.19938566599949326, -1.7618285128175284, -0.05980224728117811, 2.9080797958751314, -0.2649007688640488, -1.4904110395030248, 0.9599817863349642, -2.062231625754352, 0.18250954513997886, 1.0587154103407115, -1.8898659848741381, 0.0828903647949275, 1.32594414559665, 0.358456040618492, -0.08392299601673514, -0.7357168466038431, 0.5569749078821111, 0.46639264895316324, 0.8106144831234943, 0.0036309183357334796, 1.615344045763857, -0.8126052081822834, 0.008561986029853585, -0.4374767812936806, -0.3645528964956295, 0.3530253133670438, 0.01993774228438383, 0.21970565142439824, 0.05638899422120147, 0.33798152978198814, 0.10894087739224645, -0.2310380143835129, 0.5971144474169652, -0.0568340402989147, -0.14432609544563313, 0.09196812189175685, -0.12801448064831078, 0.08893783919220155, 0.08315346312763339, 0.2048785099106445, -0.21622713001348914, 0.12256202799790294, 0.10820379300091787, 0.1865751938394018, -0.1645796925672459, 0.09908524542788655, -0.09534185566811182, 0.05572017504187965, 0.08364897859544218, 0.04476089133255723, -0.03247571883968092, 0.01741547505732921, -0.03798876088742631, -0.039233448534753634, -0.00874733060879862, 0.018554743515469596, 0.022867216035734828, 0.052540313824602336, -0.04783066929916302, -39412.885784469465, -17317.731873982575, -13183.396377644192, -5475.171922755383, -7640.2715885291855, 2841.170516316997, 1820.0896820565792, 2886.5759005446357, 1237.541456338221, -269.43829092706494, 215.5525441580681, -313.0722415142416, -727.4290486619875, 497.90981470333134, -94.22864668508431, 714.7302585968692, 571.7568396483874, -76.63087770829736, -312.04462611140326, -303.61170219483665, -406.87623523972826, 175.01866296642802, 392.63767915112635, 498.87763652437104, 128.44626876984088, -271.50004137349015, -30.134156175578426, -72.13486345215631, 142.00091423913517, -299.68301325109763, -398.51907617944676, -231.57484957095193, 3.1852710303116822, -26.720414853163362, -95.71769145530465, 2.9925441425371435, -10.81846010370056, 102.61213778754497, 21.166149499305153, -39.367448430959904, -92.58776561061664, 97.13483078870604, -41.48313744657908, 16.095838190524706, 27.507184650689197, 23.87047217033583, 67.95895333139326, 38.187346882102446, 51.78589625439095, 20.62454550142173, 11.851244894797349, 14.762731105001752, 9.133462640877092, 3.355145414767275, -6.2788927883526355, 0.399705674697028, 18.568411092599547, -3.535893275382879, 6.3299565543368495, 0.3498754553544714, 19.594523424973346, 5.095219667788039, -23.51553499512255, 6.610654004374643, -14.689214558975582, 18.54530416814267, 7.3944354958587715, 6.6361900930769195, 15.143034887542486, 7.214030896527545, 9.068964849475272, 5.786662336060822, -5.778588980644294, 1.4271809353872138, 4.935102673202522, -7.883094698422429, 8.417674318814495, 1.2719359857346575, -0.028013882977145244, -5.431618316392148, 6.2948185185565055, 4.152899251109444, 3.588800199678839, -4.625046732623954, 1.0423751790867755, 2.2007467699495953, 3.1748114640251712, 5.94596031267289, 1.1825760483735333, -0.15435158545711536, 1.1604467260313704, 4.320506141745822, 3.349490504479892, 2.0648277907780006, 1.6804165294318096, -2.4401069681158836, -3.244792724582859, 8.313771714791063, 0.24438802637210644, -1.9313999376481608, -1.0503992231238852, -1.4158987254122504, -0.8716424589653816, -1.363253558538842, 2.170345476187105, 4.2027170028493375, 2.195862687778305, 1.5828531997042457, -1.24213534207545, -0.25983972419637524, 0.28283609082512307, -1.3444951406704613, 1.848699008552547, 0.9195901839059335, -0.46947337079778784, -0.7185792188539648, 1.5482758258377807, 0.2653061463552673, 0.16848496047959127, 0.6411629227555968, 0.9464742915141915, 0.46154753397252973, 0.16142518509601889, 0.0074366085449564245, -1.1419099071095042, 0.7066500015012975, -1.003042730752231, -0.797855399201187]",-5.353333333333333,-3.4318181818181825,-5.48,-3.85,1.0,CF,_,100.0,PEDOT:PSS,ZrAcAc,8.47,8.41,0.92,14.94,61.2
"[-40379.550777858196, 56004.069127593044, -10651.726564434246, -16787.81031422943, -4899.992121591016, -824.7283886742232, 3213.3355032253107, -1470.288885595245, 254.4377968009814, -1413.1146630484025, -524.4083602292874, -562.997720813155, -39.53950048797216, -237.61809197268883, 180.52903723581315, -190.73776488072147, -330.80306712396464, 99.72719854979664, -38.288725474699014, -15.193302786029136, -8.532246059522224, 145.04616544768794, 14.962058909511939, 123.04398183642466, 62.852427505583, -16.118058857090944, -46.56859833906233, -0.5575523560657274, -6.36498680353148, 16.394816676055783, 87.85016416866046, 16.04209532118321, 6.728058072640266, 31.819933043206213, 7.247524520540111, -16.595924642037062, 22.429503825143726, -34.30752403737112, -22.117717401179593, -42.53762441373334, 28.137558748772225, 2.22131123168802, 10.678808593591533, -14.694404223731631, 5.672198985063375, -1.6746084012166627, 3.5448396296069937, 4.439322415982939, 2.361717827741181, -7.79091708674293, -7.799464018746011, -0.06700113902227045, 6.275440131612939, 1.6816512012129223, 7.516755854741788, -1.3196602414838896, -1.599423863335157, 0.8523744266797966, 6.5919953227931884, -1.9930726417356155, 2.4730446865395805, -4.86740547502367, -1.6841737660247347, 1.6586533064853555, -0.8074568835944604, -3.2367193878033773, -2.1849438483133383, 0.21206456314353517, 3.0809245279681186, -0.19938566599949326, -1.7618285128175284, -0.05980224728117811, 2.9080797958751314, -0.2649007688640488, -1.4904110395030248, 0.9599817863349642, -2.062231625754352, 0.18250954513997886, 1.0587154103407115, -1.8898659848741381, 0.0828903647949275, 1.32594414559665, 0.358456040618492, -0.08392299601673514, -0.7357168466038431, 0.5569749078821111, 0.46639264895316324, 0.8106144831234943, 0.0036309183357334796, 1.615344045763857, -0.8126052081822834, 0.008561986029853585, -0.4374767812936806, -0.3645528964956295, 0.3530253133670438, 0.01993774228438383, 0.21970565142439824, 0.05638899422120147, 0.33798152978198814, 0.10894087739224645, -0.2310380143835129, 0.5971144474169652, -0.0568340402989147, -0.14432609544563313, 0.09196812189175685, -0.12801448064831078, 0.08893783919220155, 0.08315346312763339, 0.2048785099106445, -0.21622713001348914, 0.12256202799790294, 0.10820379300091787, 0.1865751938394018, -0.1645796925672459, 0.09908524542788655, -0.09534185566811182, 0.05572017504187965, 0.08364897859544218, 0.04476089133255723, -0.03247571883968092, 0.01741547505732921, -0.03798876088742631, -0.039233448534753634, -0.00874733060879862, 0.018554743515469596, 0.022867216035734828, 0.052540313824602336, -0.04783066929916302, -41619.28190002636, -28360.611822598752, -15661.13695604998, -3246.5858002069353, -4028.432645725806, 3358.1404855969395, 2739.117704021833, 2428.8966684209736, 2061.2651296787844, -880.9475833002939, -688.8218691751756, 335.4977850867724, -1444.6034289007466, 908.8755529479886, 121.13316742090413, 2381.380247807117, 475.9272989121706, 161.77175349918872, 407.55962370168794, -343.74233777539473, -402.13179433719483, -557.2835286880193, 201.03947600639106, 538.5971933363171, 203.8958060384939, -146.09084623623633, -168.86634677729444, -225.8890306917738, 164.77577980751033, -266.79133278105314, -210.65540432229741, -12.721324621798829, 301.86852684086915, 185.84523990528342, -182.76300403111202, 298.90408830071544, 97.74434073128417, 315.97188786559263, -135.66085448639438, -249.2600259329477, -269.53019211664054, 99.04481980297699, -147.22685734439543, 30.896487617435522, 45.335641381946985, 34.22677706626669, 62.97937601956612, 63.45017469854201, 16.703700075535565, -49.45272772431035, 16.77259840998824, -12.424290582995077, 14.552285559616529, -7.667077706788337, -17.072844233259318, -18.861948581734502, 12.300596084024669, -0.9035620137897311, 2.3487825452745597, 5.524871553907744, 9.163387709558107, 2.3784537039203064, 2.6535260111931542, -1.5086755461801769, -9.459723696560403, 27.090723370110652, 0.5437515917211209, 9.82011697008733, 12.451767702526489, 3.349745428244691, 4.241844349511817, 10.112961592672995, -12.954536932643549, 14.344496029974383, -2.603320138223139, -4.614701892243588, 4.339036951397482, 0.3860180435694609, 3.699597063046463, -9.100073312578175, 14.778725924285474, 0.9990809897226178, -3.7390728895339556, 2.2213489806776856, 1.3335460160754842, 2.1963448969718886, 1.7229326006832348, 2.3059434525250637, 3.3871198594681005, -0.8428724712407192, 2.4750186203585294, 5.1099458682188725, 2.983311055756044, 1.7311059570685643, 0.5248530781343455, -2.1539419478278847, -4.411307381189866, 9.436016465244291, 2.874241575717556, -0.9221435309478991, -2.872656466010339, -3.0073590353646047, -1.0029509577145355, 0.1881618288554332, 1.7000106523488796, 2.8068151067172713, -0.34400718569786326, 0.9173635840273531, -0.6356302941456713, -1.3049489197206672, 0.8304790417304853, 0.8950612283753312, 0.5647683484114552, -0.15342003461880305, -1.4965304103140733, 0.9612753438099304, 0.23847873355284577, 0.7405014280415474, -1.5139275956317766, 0.7780705211984928, 1.3757950124053346, -0.5341758312332743, -0.4466316067267162, -0.4715324588468155, -1.6779241333927888, 1.6973442660648397, -0.8403996293689886, -0.4713028121997809]",-5.353333333333333,-3.4318181818181825,-5.48,-3.95,1.0,CF,_,100.0,PEDOT:PSS,ZrAcAc,12.2,12.23,0.892,18.35,74.7