DA_mordred_pca,HOMO_D_eV,LUMO_D_eV,HOMO_A_eV,LUMO_A_eV,D_A_ratio_m_m,solvent,solvent_additive,annealing_temperature,hole_contact_layer,electron_contact_layer,PCE_percent,calc_PCE_percent,Voc_V,Jsc_mA_cm_pow_neg2,FF_percent
"[480970.02105998964, 5341.51312288338, -45765.143679126515, 867.8665825411135, 4237.622135826926, 3871.7942335561247, -6317.949773792045, 2262.8129465491074, -43.61334805744309, 202.54046413605647, -1161.0499646788603, 783.8494549297252, 527.0198602848491, 1013.7360144328932, 967.8884793796708, 704.0683157311432, -485.30510638200053, -697.6200939185659, -425.1786548222799, -82.72997384202864, 311.8019000659509, -617.8261396234908, 446.84031011889283, -239.10352177232477, -550.3862755066153, 121.95813658049457, 284.6115200373539, 533.4083132549858, 31.47030740298976, -150.17214922746803, 99.83719995656978, 236.44341516924817, -93.09496616279785, 2.8139149924317977, -5.948126607006316, -188.1563897207492, -80.37179247697935, 92.01274077555641, -65.12796967273741, -84.89296742192967, -21.286664276718682, 14.773875756862566, 27.301227349354804, 104.69232975603845, 24.853574093441438, -18.44047065526921, 8.093369388935386, 41.642345291103055, -38.294822582007995, 43.900448367621465, -0.9288849287741812, -14.252379751989242, 30.283086624152112, -7.327769162169616, 28.69866253094075, -11.478601043432235, -11.895783011139372, -11.825785117852078, -11.103435360353373, 11.541009179064218, -1.2959358099585572, 1.8918420285685897, -13.904438612532374, -8.60112214482254, -13.70860988971895, -3.422881814593321, -0.7397191675525505, 1.1515193191945556, -1.1756332056043135, 9.410700025228502, 0.24495413865936833, -0.9070151399105768, -4.718868614961428, -7.335484007673887, 3.551821305958825, 4.580655049022013, 2.9092120308517337, -3.5511349954155955, 0.5691664627499313, -6.49942509376929, -4.243548532255957, -2.757048490892558, 1.9953343782378532, 4.593283278908061, -0.30269421209501246, -3.4474304964650386, 0.9683889715662968, 6.6141366219437145, 1.6433201399478996, 2.389692069667973, -3.795406629774213, 1.1494726226496503, 3.698510919687969, 1.9792126254177944, 6.38437232340374, 0.6847716265230162, 1.807508488545123, -2.5528783041209664, 2.430409260065204, 1.4905584499324478, -0.10014008323267376, -1.0610460276092137, -0.9291520099475044, -0.40936315697947734, -0.8821192139697658, -1.0049308658694152, 1.2562343975289743, -0.10388850631843027, 0.9382378351756282, -0.17082152173648613, -1.887693382120025, 0.2369902069514449, -1.2660508744468402, -0.5255283344139077, 0.10441190478614715, 0.4805863657850331, -0.3979317052349405, -0.7688749342862187, -0.17623542552795257, -0.27788098791618565, 0.26581109222711774, 0.2697064257069375, 0.0327964315928142, -0.35303542116334086, -0.48599873055219334, -0.9297547026282373, 0.06966186074217084, 0.43962303900926614, -54582.54990883782, 24485.768901644078, 67788.79976651462, 23338.545494037673, -1650.8904982601043, 10359.235626948801, -3490.474320386531, -6568.353202198336, 5087.15532365227, 2789.1993462430237, -81.9064818245688, -3406.2344007991423, 536.4699799469067, -1343.9001617675099, 956.573553042151, 1828.3828053045095, -143.48903591163614, 70.78955141888105, -227.00257716955778, -626.0804093424717, 29.333123891286732, -520.9941724858436, 933.5104451359118, 406.12616793505356, 529.8788893412848, 882.9288435681596, -171.8051778136179, -50.47447030746824, 704.6189655282473, -430.6510032699558, -226.1929549345475, -385.20201056238676, 363.64165303972817, -257.4029642964963, 158.60551865742318, 35.270022969747025, 192.8509567702165, 150.36271885616594, 169.80747732136336, 20.054084488521568, 198.28651528880823, 154.59821610017832, 87.68671342374279, -54.14220501805883, 236.01539102273765, 174.94292425257686, 67.17180828239408, -87.8295155083348, -153.57309263453195, 164.95621600689205, 2.867106448132347, 71.85438565876913, -77.12707226821075, -12.105020875689405, 61.761614394038986, -1.678441376489502, -54.852085196236175, 20.73448684345854, -12.246668095726335, -27.723069680620824, -25.307765505375365, -1.2560705828432432, 3.967555099472605, 55.85787257879296, 4.44796810561526, -19.943112879703335, 0.07303953762350623, 17.043579184840713, 7.670781955331452, 4.400943643638698, -10.348958910395446, -4.0398900992663345, -29.91158879721651, -2.410346711611929, -17.503010576305854, -8.848718193552429, -4.957743613622618, -11.76923238060014, -23.641967484268037, 4.561623722445496, 0.21736654557056845, 2.8403960512505364, -14.495814698318895, -15.924567587068637, -20.833875715812646, -0.9736137518993502, 11.17493085746872, 12.866191839812707, -12.02730671657266, 0.7092350502301343, 3.570746916081319, 7.905562871829645, 1.7403851268713808, -8.734220929496445, 3.195315247832511, -1.7156800609561103, 7.0177983451907835, 5.293229057089231, 14.764200934052823, 13.007639904138614, -2.924070488485043, -4.7825426330348115, -1.2717171181106997, -4.2129032914953335, -12.862418647473582, -5.317907235182993, 0.7052868903998846, 4.786862829140071, 7.376778951380329, -1.960133961115588, -2.6179992709277364, -6.293189739260143, 0.878136655473412, 4.095654918431016, -3.5527870441837788, 1.3276070558643447, -2.5073709699745947, -0.4395477062827151, -0.8878539698178933, -1.1674526436656159, -6.227227997796501, 4.35348929512412, 3.2716647841340665, -6.058848655239348, 1.9347638303493815, 2.276589431317653, -6.083495782713115, -0.06130754974511632]",-5.34,-3.7,-5.75,-3.7,1.0,CB,_,25.0,MoOx,ZnO,1.75,1.81,1.08,4.4,38.0
"[480970.02105998964, 5341.51312288338, -45765.143679126515, 867.8665825411135, 4237.622135826926, 3871.7942335561247, -6317.949773792045, 2262.8129465491074, -43.61334805744309, 202.54046413605647, -1161.0499646788603, 783.8494549297252, 527.0198602848491, 1013.7360144328932, 967.8884793796708, 704.0683157311432, -485.30510638200053, -697.6200939185659, -425.1786548222799, -82.72997384202864, 311.8019000659509, -617.8261396234908, 446.84031011889283, -239.10352177232477, -550.3862755066153, 121.95813658049457, 284.6115200373539, 533.4083132549858, 31.47030740298976, -150.17214922746803, 99.83719995656978, 236.44341516924817, -93.09496616279785, 2.8139149924317977, -5.948126607006316, -188.1563897207492, -80.37179247697935, 92.01274077555641, -65.12796967273741, -84.89296742192967, -21.286664276718682, 14.773875756862566, 27.301227349354804, 104.69232975603845, 24.853574093441438, -18.44047065526921, 8.093369388935386, 41.642345291103055, -38.294822582007995, 43.900448367621465, -0.9288849287741812, -14.252379751989242, 30.283086624152112, -7.327769162169616, 28.69866253094075, -11.478601043432235, -11.895783011139372, -11.825785117852078, -11.103435360353373, 11.541009179064218, -1.2959358099585572, 1.8918420285685897, -13.904438612532374, -8.60112214482254, -13.70860988971895, -3.422881814593321, -0.7397191675525505, 1.1515193191945556, -1.1756332056043135, 9.410700025228502, 0.24495413865936833, -0.9070151399105768, -4.718868614961428, -7.335484007673887, 3.551821305958825, 4.580655049022013, 2.9092120308517337, -3.5511349954155955, 0.5691664627499313, -6.49942509376929, -4.243548532255957, -2.757048490892558, 1.9953343782378532, 4.593283278908061, -0.30269421209501246, -3.4474304964650386, 0.9683889715662968, 6.6141366219437145, 1.6433201399478996, 2.389692069667973, -3.795406629774213, 1.1494726226496503, 3.698510919687969, 1.9792126254177944, 6.38437232340374, 0.6847716265230162, 1.807508488545123, -2.5528783041209664, 2.430409260065204, 1.4905584499324478, -0.10014008323267376, -1.0610460276092137, -0.9291520099475044, -0.40936315697947734, -0.8821192139697658, -1.0049308658694152, 1.2562343975289743, -0.10388850631843027, 0.9382378351756282, -0.17082152173648613, -1.887693382120025, 0.2369902069514449, -1.2660508744468402, -0.5255283344139077, 0.10441190478614715, 0.4805863657850331, -0.3979317052349405, -0.7688749342862187, -0.17623542552795257, -0.27788098791618565, 0.26581109222711774, 0.2697064257069375, 0.0327964315928142, -0.35303542116334086, -0.48599873055219334, -0.9297547026282373, 0.06966186074217084, 0.43962303900926614, -55042.84107116488, -55351.15295050086, 31407.66101689898, -2232.3659613800937, 11564.103828600912, -1914.2044067544339, 8079.715952046853, -3475.8703854136593, 2539.3265629600046, -2463.916267289535, 2559.0099786617347, -3225.0190886476453, 210.84172049117228, 161.30448298413307, 1053.1006386727831, 510.61577843622, -1515.5523741084355, -1656.1656816480363, 278.89662090360844, -752.8100670006704, -38.05076093644607, 426.61819134252096, -522.67012988343, -361.938624147367, -365.02708234514193, -161.6679789949497, -44.03422085209115, -57.64405650638153, -321.2654249298588, 27.147640880832057, -155.32941074622428, -52.63124920373252, -55.42067852995311, -114.45981659616416, 95.76623351374622, -44.0290017393878, 73.67001087864821, -104.98825268546122, 85.6439233474357, -27.276522941427203, -79.35241261495312, -50.02973332434394, -29.21773238872413, 25.250948350231752, -28.071022547580753, -70.25937345472525, 45.90524938761246, -58.53091817170025, -12.771499818901646, 2.821051286378463, 41.50035618849949, -47.52824767404476, 16.841650925371567, 13.196282508186457, 4.147447392931383, -23.230046526285662, 39.292789298729474, -0.5449935074048824, -11.976243577289011, -12.53513239192597, 3.1764559015491685, -26.055287680047122, -14.70108065903544, 7.0214674210294135, -27.096865730367355, 2.3034973539831434, -24.690188493906252, -8.267021976266687, 28.546846985335915, 2.937136525098232, 7.354981529151672, 4.413821493605479, -7.529452223793015, -7.538415585104271, 8.843337716837977, 4.845468680014605, -14.898352864750901, -14.646078320009224, -5.835237215835264, 10.70732613252585, -0.542608913957296, -7.65032809572422, -7.940554866762108, -0.809435392104433, -1.2111740694860273, -3.2529470841886052, -4.9615709852691445, -0.3359778045686639, -0.823058846368868, 1.4326881399156655, -0.6640673148981762, 5.622012397407744, -3.4223905182559733, 1.9173437662479813, 1.9489357289257185, 4.687291630719706, -3.7700097072856664, 6.24540253162146, -3.3827875978188633, 2.2239964366483207, -7.811001422332019, 0.17341325502317773, -0.9539159275127655, -0.614641263843474, 9.40051735840823, -0.9713413989801083, -0.6073155623643594, 1.5608657712109597, 0.6491457075713514, 0.9124999241932059, 2.359198655688992, -2.164299390024432, -1.9911483638826724, -1.9575481411905944, -0.06451590658441653, 1.6952513180929571, -3.2253914988350445, 0.33869211212141437, 3.2292052940434637, -0.513316963652013, -1.5798041048758371, -2.342285552807212, -2.090510864178087, 1.144184818586421, 0.45456719904957205, -0.3102592515308231, 0.9943346118460141, 1.6960448554045655]",-5.34,-3.7,-5.5,-3.9,1.0,CB,_,25.0,MoOx,ZnO,9.95,9.95,1.07,15.0,62.0
"[-40379.550777858196, 56004.069127593044, -10651.726564434246, -16787.81031422943, -4899.992121591016, -824.7283886742232, 3213.3355032253107, -1470.288885595245, 254.4377968009814, -1413.1146630484025, -524.4083602292874, -562.997720813155, -39.53950048797216, -237.61809197268883, 180.52903723581315, -190.73776488072147, -330.80306712396464, 99.72719854979664, -38.288725474699014, -15.193302786029136, -8.532246059522224, 145.04616544768794, 14.962058909511939, 123.04398183642466, 62.852427505583, -16.118058857090944, -46.56859833906233, -0.5575523560657274, -6.36498680353148, 16.394816676055783, 87.85016416866046, 16.04209532118321, 6.728058072640266, 31.819933043206213, 7.247524520540111, -16.595924642037062, 22.429503825143726, -34.30752403737112, -22.117717401179593, -42.53762441373334, 28.137558748772225, 2.22131123168802, 10.678808593591533, -14.694404223731631, 5.672198985063375, -1.6746084012166627, 3.5448396296069937, 4.439322415982939, 2.361717827741181, -7.79091708674293, -7.799464018746011, -0.06700113902227045, 6.275440131612939, 1.6816512012129223, 7.516755854741788, -1.3196602414838896, -1.599423863335157, 0.8523744266797966, 6.5919953227931884, -1.9930726417356155, 2.4730446865395805, -4.86740547502367, -1.6841737660247347, 1.6586533064853555, -0.8074568835944604, -3.2367193878033773, -2.1849438483133383, 0.21206456314353517, 3.0809245279681186, -0.19938566599949326, -1.7618285128175284, -0.05980224728117811, 2.9080797958751314, -0.2649007688640488, -1.4904110395030248, 0.9599817863349642, -2.062231625754352, 0.18250954513997886, 1.0587154103407115, -1.8898659848741381, 0.0828903647949275, 1.32594414559665, 0.358456040618492, -0.08392299601673514, -0.7357168466038431, 0.5569749078821111, 0.46639264895316324, 0.8106144831234943, 0.0036309183357334796, 1.615344045763857, -0.8126052081822834, 0.008561986029853585, -0.4374767812936806, -0.3645528964956295, 0.3530253133670438, 0.01993774228438383, 0.21970565142439824, 0.05638899422120147, 0.33798152978198814, 0.10894087739224645, -0.2310380143835129, 0.5971144474169652, -0.0568340402989147, -0.14432609544563313, 0.09196812189175685, -0.12801448064831078, 0.08893783919220155, 0.08315346312763339, 0.2048785099106445, -0.21622713001348914, 0.12256202799790294, 0.10820379300091787, 0.1865751938394018, -0.1645796925672459, 0.09908524542788655, -0.09534185566811182, 0.05572017504187965, 0.08364897859544218, 0.04476089133255723, -0.03247571883968092, 0.01741547505732921, -0.03798876088742631, -0.039233448534753634, -0.00874733060879862, 0.018554743515469596, 0.022867216035734828, 0.052540313824602336, -0.04783066929916302, -79733.4759978694, -180042.3780069939, 3825.670407557936, -12650.504602376473, 21648.83857988801, 3034.13186681009, 276.3816115553236, 105.23962075426334, -5478.017091491221, -3180.0431600898664, -3243.4645727725547, 1487.6550123567044, -906.3500233939799, 639.5616736960843, 574.3843295038969, 3941.0526941524367, 1716.740606210339, 907.1405524262159, 681.6153051876564, -945.9784810139321, -1164.016392732494, 466.96089654828506, -673.6273035864344, -956.7729932155602, -45.04674810055644, 816.2459487825344, -618.8944953319883, -1136.6319737017104, -268.3424311243575, 45.579750394256166, -285.97939440419213, -235.45860544090363, -220.4927424460373, 149.1991303210998, 168.49550188087824, -245.65389677111182, 299.5879367330878, -363.19686565434927, -78.79000258460404, 178.075290937092, -221.1842426336478, 302.084613290536, -152.44697507469226, 149.01369064088973, 71.28581316864798, 27.934201033808733, -109.22833546548435, 138.99626809809544, -45.688500863205036, -11.502698605829437, -37.06117801482967, -28.327919683300195, -93.4698116699206, 25.13064065006904, 244.32487312684407, 26.724368047425003, 72.39164011269898, 21.094076197663753, 84.90238436819305, -7.377692101108607, 9.832353261719774, -2.0435905802390835, 1.067505298693817, -23.46685701309417, 36.89530811331551, -3.6081141135497354, 12.225778691531307, 61.06901056090967, -6.608799655339093, -34.2585934927601, -19.10875692613491, -17.21736976191417, -3.1181803305337326, -11.553826816869275, 2.9877614751876163, -3.85432703370725, -6.997175745862478, 12.407015249035744, 17.528495681281996, 12.270011164951029, -8.580365675977319, 12.726452809279138, 18.221779543605166, -4.245007117053575, -6.502077941853656, -14.97581516859217, 7.526757051881717, 2.638612775043015, 7.650478735870024, 26.512649194306988, -6.5437124010794605, 8.083484437408458, -6.3152975351900835, -0.1062740619506286, -0.13321462035203524, -4.359498138234947, -0.17351878447935576, 1.5770909695784354, -6.832902956660011, 6.218876073875265, 4.46005728090266, -3.1589356931932215, -0.4045296587808451, -3.560038069908252, 1.1689494861589793, 2.5844561336358582, -8.127002001081078, 2.1457946857888466, -3.033523776024431, 5.968224369206041, -3.4298372046052172, 0.5598788854157419, 1.2698119098065632, 1.0526715199159267, 1.9886992145577755, 1.9306693816963119, -7.231089690490776, -5.058204028417061, 3.3841457136846316, 1.8186997228527702, 1.4179767122426803, 4.871252652218221, -2.1171129903480144, 0.5969491818869095, -2.2202829514202262, -1.3652168318112707, 2.472165252941892, 4.140664116799769]",-5.353333333333333,-3.4318181818181825,-5.59,-3.66,0.5,CF,DIO,25.0,MoOx,ZnO,8.77,8.77,0.9,15.43,63.18