DA_mordred_pca,HOMO_D_eV,LUMO_D_eV,HOMO_A_eV,LUMO_A_eV,D_A_ratio_m_m,solvent,solvent_additive,annealing_temperature,hole_contact_layer,electron_contact_layer,PCE_percent,calc_PCE_percent,Voc_V,Jsc_mA_cm_pow_neg2,FF_percent
"[-113112.0221877825, -128040.17814553897, -10298.628999373548, 3432.733628547574, 8973.419698991387, -3439.282848851566, 3781.954798850272, -829.6176407827634, 1085.3982123472952, 550.4456547111608, -435.8864607518108, -710.2243801656157, 1326.1626490602139, 8.665554309145136, -418.74269954022566, 187.45956881819745, 121.28409340748124, -4.298184849417794, 8.490690881116162, 52.913455571291934, 87.8658439058351, 43.51987937221628, 44.34062644746041, -49.48592701393579, 33.90433203557939, 4.676946288832141, -8.072828067571379, 10.567251849407967, -111.51899092106515, 28.525996512887673, 100.06773607887192, 12.062822784303606, -5.263110840715456, 7.512175011148145, 1.3785293027879106, 16.635643035520957, 4.039764278740535, -24.845372606161163, -22.45639579757742, 5.826741130519196, -0.7521496402381729, 12.53019855668316, -4.796028348520849, -8.538919188446641, 0.6386535221417375, 0.28586521885279126, 3.6235228381428186, -2.3848029517721017, -2.8923507347754054, 4.7855121583618825, 4.964071798130007, -3.784341510985911, 2.078751210970445, -0.29178313050513793, -1.7735955457794503, -3.129511596315538, 1.0268372421283374, -6.771806284949676, -0.36009360913607225, -0.2885819863777215, 0.7901843974181446, -4.113908987537911, -1.4204402500640185, -1.319936024894119, 0.9505850971635255, 0.3919987624149357, -1.1826527991339901, 0.25278811590131767, -0.10244841765984347, -0.06963895121972996, -0.3177515931384107, -0.252237779743524, 0.3418882282524356, -0.025334246562977114, 0.6085323469659869, -0.08140436503745718, -0.052060392777136144, -0.37716527456960947, 0.622708357653387, 0.7512702289248097, -0.18664277121496298, -0.4686124080250025, 0.11033475969473727, -0.17570642990008523, -0.01191175014561452, -0.5637582343619982, -0.15994847323332984, -0.4211786166219582, -0.07485781839410688, -0.23597185487598793, -0.10873839156025156, -0.12014790117991936, 0.17783780040360142, -0.16002430739202889, -0.04013287387633824, -0.3283820317790074, -0.14723447861628003, -0.013208994816466202, 0.10783506653254449, 0.02054895260968026, 0.0038103610396120757, -0.03785315965532643, -0.013199411282162288, -0.07276953001481701, 0.05509625405750462, -0.04625759139159413, 0.04027683863420606, -0.0025516021335834083, 0.03001469427361414, 0.09321320428330893, 0.06018147875735025, -0.03890482007976459, 0.055154607055641236, 0.0315222130303745, -0.0697597739780349, -0.024930229612809995, -0.01225032381139357, 0.015968003371716222, 0.02773925890596729, 0.0066110138903283655, -0.025875302652229593, 0.0026188898131849214, -0.006174358951955394, 0.01351968740192433, -0.0167749891402309, 0.027379330332195195, -0.004039592793215974, -0.00318420795111507, -84175.34311458885, -180594.50616226144, 21163.935175218416, -7907.773552462593, 10956.78315310715, -2250.311092804588, -3185.8564733453277, -6122.098200277612, 2102.5446278202107, -1768.6952650670976, -1365.4692687949246, -568.510833715723, -904.6899812113743, -43.22627827855695, 795.9642505020133, 1008.9381101871872, -594.2102004356251, -1423.0131220950911, 249.2429815817831, -282.32778330831206, -72.16590041738164, 475.2393765601239, 193.02977150456184, 151.02885913439832, 136.3754639917065, 117.33295894624132, 330.5092681123765, 152.94589357825737, -133.2810875509772, -328.3373059489977, -73.99955215246736, -239.93831663204958, -60.12954473111586, 21.204329217648137, 172.3108436206916, -110.4775046590933, 144.19039382977496, 4.414139854272435, 94.16997805072148, -73.13138342020886, 85.97392337936279, 76.02320501427681, 37.620254336316975, 103.56292652779197, 91.05514305641177, 53.369589479266935, -33.98652345698659, 5.361612343754416, -28.287305342233537, -11.083003001387027, 20.612207643544963, -0.46466352891263796, -72.41676635732313, -1.7256749992132825, 2.671405087497078, 7.380252923096577, -34.562453555114644, -3.4352939319064717, 23.507831949006572, -2.668367702630178, -0.4322543785876576, 0.7065227955569995, -7.338737782767197, 19.16604703094407, -18.174195450392233, -10.488026195251052, -8.899676066142966, -15.804532228556958, 4.7702835154538565, -1.2642340456962415, -2.4866176510995928, -10.37561188210329, -17.75296230344304, 12.073912864643965, 1.2331453324916453, -17.167064906777398, -4.917201160264902, -4.573250277656818, -17.729003906090355, -6.426353288748615, 4.413119653461271, -5.804557174090334, -4.6400994564423925, -12.475705230270194, 0.6465631919448498, 3.9217492408025123, -2.113656660268809, 3.205461302573468, 3.124731835531975, -5.891041212598225, 3.966051159716031, 0.9546543100527458, -0.23053830042223922, -4.1348715879613565, 0.44516561210646444, 3.3419413871761847, 6.025410133945769, -2.4083857336798076, 1.3495452230445188, 1.3543304166632026, 5.819249430439093, -4.0360225660088105, 5.290693015506875, 2.310018392270454, -2.430435350025064, -3.0720076918479506, -1.8393688496444227, 0.9366606113087634, -1.843561852562246, -7.541564888204299, -0.595132811286966, 6.954154367063161, -2.396631286224107, -4.493715282784038, -1.8430777876849245, -3.046645512184014, -2.297529464151964, -5.7067562713546724, -4.246189866990356, -5.632343199076288, 1.8128628172812142, -0.4148269320318061, -1.1105793786212672, -2.2090351771031678, -1.4351145723910506, -0.3762643402301755, -0.34126429497517563, -0.738966204847415]",-5.057777777777777,-2.989444444444445,-5.786666666666666,-3.673333333333333,1.0,CF:DCB (80:20),_,110.0,MoO3,ZnO,4.11,4.11,0.82,7.95,63.0
"[-96218.45766618998, 38190.55941397739, 9341.19863978244, -298.0321681723599, 3837.039845288656, -633.0815150821412, -1318.980794355729, 952.285808193773, 528.6042339012306, -265.75996339509254, 85.60403763240663, 327.51410203292335, 339.9238825739942, -217.3938336123946, 80.63195135367053, -89.32083633853233, 32.19492584684396, -21.519530699055707, -3.6266113552724115, -73.04368468656011, 86.79421267883791, 28.9157151412623, 61.36551771993493, -20.29937758864763, -20.5145225649866, 1.7418865694839667, -22.377181673057002, 12.371971410300219, 34.95291732805864, 10.187903617561325, 15.16604348820858, 8.612060636243209, -1.1743635221400766, 7.0376682218726625, -4.093627003889395, 9.922048209550361, -15.554840299560915, -5.613674452998811, -0.2972665085945745, 4.368352481075529, -3.6043195792310403, 1.354200703685919, 2.8516893216669104, -4.255469010620061, 8.299974464104451, 1.2791418187815111, 1.2654639155740988, -2.171801897186288, 0.7563528622149089, 1.6309678283868045, 0.8461705305940708, 3.200150728577338, 4.514637663770485, 2.047832060332592, 0.988495732690156, 3.0209744065138135, -1.0787642655477623, -0.5848165573459294, 0.7450505682325215, 0.7138952097940852, -0.4513392507860554, 0.44000043161623736, 0.9076636698868725, -0.7553614212014921, -1.1367214236829248, 1.4883333004282742, -0.6534390261587824, -0.2020478861539523, 0.5979438493412772, 0.35044047212350127, 0.5920200016964907, -0.4545510567545348, 1.2436977886366634, 0.06188974879205844, 0.28770923066137755, 0.34025436763747585, 0.054350949740208376, 0.15963437295462057, -0.5109982693033068, 0.3735134387368202, 0.6870145153430531, 0.38216412404326583, -0.20553217795980494, -0.08297866327442271, -0.09481622405384194, -0.0074888306561717854, 0.442508262678758, 0.06098427500299941, -0.4139541096843904, 0.14832844029545988, -0.294554145147611, 0.015892796356977712, 0.1548609075275289, -0.005654655004061704, 0.07842930267586645, -0.20841896255037717, 0.07855635365402769, 0.01820150849557578, 0.012441639298426566, -0.05940224021880214, 0.12084591158474112, 0.026787833651969892, 0.019668535058581682, 0.05537380493890609, -0.03933624965050253, 0.009307974571203914, -0.023474896973407267, 0.020049719383548492, 0.003215210697313786, -0.04194589694978035, 0.04089452902605473, 0.02749361263995076, -0.07262298298187164, 0.015379054954234306, 0.0506532373375812, 0.01506994111025417, -0.02377975685210143, 0.009711782809699865, -0.04845640783987859, 0.03322037544939782, -0.008444174408285043, -0.002255075440015908, 0.022455666638478533, -0.005795103590370054, 0.02421124183525336, 0.01760123567103644, -0.016655303062377946, 0.018813816162650987, -47737.05839314887, -46212.304178651706, -302.5434970663496, 783.5731158834296, -5430.549540944962, -5992.08124143731, 2660.021784832388, -767.7402743299624, 1219.5253983889386, 941.882552921674, -2225.6457358524517, 2013.1731842038105, -2191.678293166571, 1228.7999898991652, -166.4183129154929, 1914.1397526245378, -268.1045023326839, 456.3811092203099, 470.8651848783821, 545.8503643398765, -417.82639982850924, -282.4313015103935, -231.65509608670794, -71.78733002055566, 82.92191993643007, 71.51622498944675, 196.8906100494469, -200.07101051528684, 70.85495430465744, 188.53036135650285, 280.51685281956384, 116.20040075443296, 260.3813574225942, 138.83948648985455, -166.5114021745863, 280.5930893898089, 9.102030235775118, 245.25606682081525, -196.54398008731522, -111.69550609258431, -188.49141957833777, 24.012674357454586, -119.60959456725956, 14.87981928794104, 7.507197543490186, 30.030771447156354, 24.23051915755839, 13.900955996851323, -7.047065189775651, -19.613314205123125, -9.386236460211808, -7.670670929697877, -16.83101005985931, 26.71266939207044, -20.114849566028397, 15.567756248046095, 12.095994314396023, 9.370873784821129, -23.369013157707144, -8.74453282267882, -31.85174730328889, -3.638102783281049, 15.70416984603711, 13.490381174557172, 3.9203632011420098, 6.11720099682409, 3.5873455524488156, 6.8421311324594996, 4.096984560751739, 0.020140164507736813, -18.129116900275584, 10.577548038553573, -4.459112807455689, 9.055777908676038, -10.339443861112667, 4.859155552974784, 5.273553031688014, -6.113274481692972, 4.7496970835166366, 5.294741716590721, -1.9152239710482366, -3.74395334804678, -15.914580093051196, -1.11460533659789, -3.412904109828176, -2.3509464008339265, 0.07530168905028134, -8.566685274927913, -8.806697048664418, -4.7337256388951126, 3.2145135842853065, 6.079531331038311, 1.2658058270284442, -3.513561233176354, -6.6457781597246, 3.890342520973956, -1.4609058969080984, -2.8388648281796467, 2.572890922827572, 5.838545959954814, -3.5404458371250307, -2.3778542669030927, -1.4105919132519154, -0.7758044388730951, -3.0046012391011523, -2.808961380692992, 0.5710905497629, -0.05985037383039682, 2.5701878871164663, 0.1303001847173917, -1.6122407283719902, -0.14345427858255988, -2.4683812555609776, -3.0405485889280364, -0.001053218195699479, 4.021691551806526, -0.6643055069396198, 1.7382790627866438, -2.6418481001909697, 0.8599978718540342, -2.2184927733894164, 0.2738980062192824, -0.29997113506612116, -0.5106762166025209, 0.17390550871471433, 1.1320111654813463, 0.03520781477424606, -1.0168726881269237]",-5.297714285714285,-3.4170000000000003,-5.890000000000001,-3.93,1.0,CB,DIO,110.0,MoOx,ZnO,6.4,6.4,0.85,12.06,62.48
"[-113112.0221877825, -128040.17814553897, -10298.628999373548, 3432.733628547574, 8973.419698991387, -3439.282848851566, 3781.954798850272, -829.6176407827634, 1085.3982123472952, 550.4456547111608, -435.8864607518108, -710.2243801656157, 1326.1626490602139, 8.665554309145136, -418.74269954022566, 187.45956881819745, 121.28409340748124, -4.298184849417794, 8.490690881116162, 52.913455571291934, 87.8658439058351, 43.51987937221628, 44.34062644746041, -49.48592701393579, 33.90433203557939, 4.676946288832141, -8.072828067571379, 10.567251849407967, -111.51899092106515, 28.525996512887673, 100.06773607887192, 12.062822784303606, -5.263110840715456, 7.512175011148145, 1.3785293027879106, 16.635643035520957, 4.039764278740535, -24.845372606161163, -22.45639579757742, 5.826741130519196, -0.7521496402381729, 12.53019855668316, -4.796028348520849, -8.538919188446641, 0.6386535221417375, 0.28586521885279126, 3.6235228381428186, -2.3848029517721017, -2.8923507347754054, 4.7855121583618825, 4.964071798130007, -3.784341510985911, 2.078751210970445, -0.29178313050513793, -1.7735955457794503, -3.129511596315538, 1.0268372421283374, -6.771806284949676, -0.36009360913607225, -0.2885819863777215, 0.7901843974181446, -4.113908987537911, -1.4204402500640185, -1.319936024894119, 0.9505850971635255, 0.3919987624149357, -1.1826527991339901, 0.25278811590131767, -0.10244841765984347, -0.06963895121972996, -0.3177515931384107, -0.252237779743524, 0.3418882282524356, -0.025334246562977114, 0.6085323469659869, -0.08140436503745718, -0.052060392777136144, -0.37716527456960947, 0.622708357653387, 0.7512702289248097, -0.18664277121496298, -0.4686124080250025, 0.11033475969473727, -0.17570642990008523, -0.01191175014561452, -0.5637582343619982, -0.15994847323332984, -0.4211786166219582, -0.07485781839410688, -0.23597185487598793, -0.10873839156025156, -0.12014790117991936, 0.17783780040360142, -0.16002430739202889, -0.04013287387633824, -0.3283820317790074, -0.14723447861628003, -0.013208994816466202, 0.10783506653254449, 0.02054895260968026, 0.0038103610396120757, -0.03785315965532643, -0.013199411282162288, -0.07276953001481701, 0.05509625405750462, -0.04625759139159413, 0.04027683863420606, -0.0025516021335834083, 0.03001469427361414, 0.09321320428330893, 0.06018147875735025, -0.03890482007976459, 0.055154607055641236, 0.0315222130303745, -0.0697597739780349, -0.024930229612809995, -0.01225032381139357, 0.015968003371716222, 0.02773925890596729, 0.0066110138903283655, -0.025875302652229593, 0.0026188898131849214, -0.006174358951955394, 0.01351968740192433, -0.0167749891402309, 0.027379330332195195, -0.004039592793215974, -0.00318420795111507, -70830.26093153453, -147314.92081174845, 11030.865269054726, -33390.95057992646, 5086.211339698751, 3488.76103106869, 549.4164210113231, 3825.5400346339993, 1851.387969519783, -1241.8237628644542, 2708.0716825791947, -2014.8696419806854, -196.1020926117294, 2152.2211266981276, 356.14739947414307, -320.37308380664035, 2420.2698144029496, 535.2499356457797, -1447.4329816660122, 976.0676555862578, -121.31703051450518, -46.1781194211178, -723.0696517763963, 759.1610229410581, -105.41830037801981, 330.2466896338441, -1112.4843834826993, -18.969619307417553, 235.39296576486845, 162.95804899233985, 1281.183023608309, -459.3495989990922, 134.02615130426614, -604.484057544686, -115.6145477799938, -10.203214397802597, 80.46370749693341, -274.94972571108457, -102.69283477220011, -230.7600940052879, 403.6652121984509, 92.21331308990798, 0.7830274361721195, -56.73240694919754, 16.967883410281388, -3.859704356005814, -40.41869102007654, 90.85864345263225, 36.535881551898015, 81.2890581490246, 0.6606829072991687, 67.8133613689364, -133.35356510419135, -25.111540216063233, 77.70915747694232, -43.10901402799783, 21.736283930104378, 110.73901051347701, 4.214612448246697, -41.73967062511741, -40.98651968869719, -12.313280807751994, 61.22273307372846, -30.899381985913145, -17.16137054116855, 36.66153280343038, -56.19949299661521, 5.457349707332504, 20.953774566633744, 29.37888833476807, -35.420789040230495, 10.764434050984338, -6.461587747958703, -8.812848727853808, 6.1838023851968735, 23.968186860522025, 3.98815311531267, 7.229406996628878, -23.24520604015038, 3.9649822376251365, 13.867123024841412, 3.8589450773147647, 4.967950871055169, 20.929152401703398, 8.38202383533799, 19.658123956728943, -4.289225524488678, 7.93026749163576, -5.099530401643943, 6.706853750924504, 6.962846429177205, -1.078646352353772, -5.432509091623913, 11.364037154755295, 1.6707815335715637, -2.726271072841204, -6.6695023592445395, 0.9675100149820413, 2.58644234724879, 14.498805881915573, -2.5222844430406646, 6.788658065147688, -1.4690413494764467, -7.079644376429835, -2.330310829684663, 7.170000741885559, -0.40827350341555935, -9.785973655121879, 5.220236232758964, 5.289261553135471, -3.921470734323819, 0.9270281878610405, 0.8091906771391848, -0.33814627368333916, -0.2070188192184348, 0.4894087109328886, 0.4627669023957992, 5.579729529625432, 0.3305114868940606, -6.2823393100690765, -2.2457159940650175, -3.8616988623023287, -2.306693969221252, 1.8620567781931001, 2.4714518212254433, -5.0072718821287765, 5.509983068413341, -2.4566010628695487]",-5.057777777777777,-2.989444444444445,-6.07,-3.96,1.0,CB,_,25.0,PEDOT:PSS,LiF,3.8,3.93,0.9,9.3,47.0