DA_mordred_pca,HOMO_D_eV,LUMO_D_eV,HOMO_A_eV,LUMO_A_eV,D_A_ratio_m_m,solvent,solvent_additive,annealing_temperature,hole_contact_layer,electron_contact_layer,PCE_percent,calc_PCE_percent,Voc_V,Jsc_mA_cm_pow_neg2,FF_percent
"[-96218.45766618998, 38190.55941397739, 9341.19863978244, -298.0321681723599, 3837.039845288656, -633.0815150821412, -1318.980794355729, 952.285808193773, 528.6042339012306, -265.75996339509254, 85.60403763240663, 327.51410203292335, 339.9238825739942, -217.3938336123946, 80.63195135367053, -89.32083633853233, 32.19492584684396, -21.519530699055707, -3.6266113552724115, -73.04368468656011, 86.79421267883791, 28.9157151412623, 61.36551771993493, -20.29937758864763, -20.5145225649866, 1.7418865694839667, -22.377181673057002, 12.371971410300219, 34.95291732805864, 10.187903617561325, 15.16604348820858, 8.612060636243209, -1.1743635221400766, 7.0376682218726625, -4.093627003889395, 9.922048209550361, -15.554840299560915, -5.613674452998811, -0.2972665085945745, 4.368352481075529, -3.6043195792310403, 1.354200703685919, 2.8516893216669104, -4.255469010620061, 8.299974464104451, 1.2791418187815111, 1.2654639155740988, -2.171801897186288, 0.7563528622149089, 1.6309678283868045, 0.8461705305940708, 3.200150728577338, 4.514637663770485, 2.047832060332592, 0.988495732690156, 3.0209744065138135, -1.0787642655477623, -0.5848165573459294, 0.7450505682325215, 0.7138952097940852, -0.4513392507860554, 0.44000043161623736, 0.9076636698868725, -0.7553614212014921, -1.1367214236829248, 1.4883333004282742, -0.6534390261587824, -0.2020478861539523, 0.5979438493412772, 0.35044047212350127, 0.5920200016964907, -0.4545510567545348, 1.2436977886366634, 0.06188974879205844, 0.28770923066137755, 0.34025436763747585, 0.054350949740208376, 0.15963437295462057, -0.5109982693033068, 0.3735134387368202, 0.6870145153430531, 0.38216412404326583, -0.20553217795980494, -0.08297866327442271, -0.09481622405384194, -0.0074888306561717854, 0.442508262678758, 0.06098427500299941, -0.4139541096843904, 0.14832844029545988, -0.294554145147611, 0.015892796356977712, 0.1548609075275289, -0.005654655004061704, 0.07842930267586645, -0.20841896255037717, 0.07855635365402769, 0.01820150849557578, 0.012441639298426566, -0.05940224021880214, 0.12084591158474112, 0.026787833651969892, 0.019668535058581682, 0.05537380493890609, -0.03933624965050253, 0.009307974571203914, -0.023474896973407267, 0.020049719383548492, 0.003215210697313786, -0.04194589694978035, 0.04089452902605473, 0.02749361263995076, -0.07262298298187164, 0.015379054954234306, 0.0506532373375812, 0.01506994111025417, -0.02377975685210143, 0.009711782809699865, -0.04845640783987859, 0.03322037544939782, -0.008444174408285043, -0.002255075440015908, 0.022455666638478533, -0.005795103590370054, 0.02421124183525336, 0.01760123567103644, -0.016655303062377946, 0.018813816162650987, -22273.071834770268, 10182.600652892861, 2532.83592957786, -9834.271585009119, -9247.815434967666, -2075.9251608385157, -6459.762570067609, 1987.2693037511026, 3817.7911292946483, 3275.2468940086424, 3723.2816730727814, 1601.7867988778103, -894.3458058681704, 918.6505077650033, 162.86611358056268, 241.71314139641413, -758.1330687744767, 1087.1150650239701, -295.9256918519028, 143.82735412598612, -678.8553359702526, 50.902842096039166, -151.50183112327875, -682.4257789157956, 286.37228605282604, -23.901804869901667, -55.70770077379133, -386.645944766706, 28.419335229474115, 248.30927036847692, -250.1579109739613, -363.6654843982929, -175.14935126571854, 217.77021954829416, -95.55474549109024, -23.567650415410867, -137.97140441835256, 132.20579020281954, 189.95519258274612, 120.89039048524428, -1.922952229421874, -83.86913193475065, -83.88825527478602, 143.62357888030823, 95.4874313296369, -95.93108282559473, 82.61111526660675, 33.60301891851545, -125.30657631733945, -61.49704957269131, -21.38298015601435, 0.9248334513682934, 1.3061275735932796, -58.83778896131506, 48.74711521767436, -12.056540696646238, 41.21072504153038, -32.52029960916208, 8.218452035993906, -19.942919391865814, 5.217312534871406, -72.91003473799411, -37.69473233689824, 48.16001020112075, 26.228262240732796, -32.11443284635673, -7.531155178416013, -29.142860648463454, -22.108198734655495, -33.499628931246065, -10.755091819741072, -47.86658641590241, 5.842979746975168, 7.1326618331233185, -14.914641732767038, -11.15959276342653, -5.3185001418862505, -16.27091359213213, 13.030162035107814, 5.41607384084659, -20.542059990340167, -15.477627654525932, 30.536161854281495, 2.9182263596602205, -10.82512513641312, -15.353812327987429, 16.6830685738868, -13.993799512189922, 1.9833320734478326, -7.511080322051932, 18.879238873006038, 3.8982814974606086, -12.097825388741636, 0.7318065034436074, 3.792237814820254, -7.547699753421093, -0.5502958202500317, -4.2831437850716405, 11.809432171123065, 19.91312257431626, -1.1124093023552923, -4.066177035150606, 6.466413274452705, 15.185967195593548, -4.7401293182818485, 6.999364136566709, 0.2904409517811475, 10.00649748137726, -4.646528742094233, -2.3545716030453416, 10.695538053126212, 8.989561776803821, 2.4426122435205144, -2.8944452744145135, 11.33707274350019, -2.3801543674392374, 8.368038299982473, 5.2356371938337976, -5.178071239244916, 1.033755202627574, -4.976399903540969, -9.084045313168401, -2.3494218797481867, 3.319468603024819, 7.542439253815839, 0.7772182546691067, 0.4124882311360132, 2.140345217834371]",-5.297714285714285,-3.4170000000000003,-5.62,-4.09,1.0,CB,CN,25.0,MoOx,ZnO,8.52,8.52,0.88,13.67,70.8
"[-105631.73783275932, -74572.73247403272, 4329.753734020427, -2341.4243576849567, -5555.485216633641, -172.87819728700106, -798.6979620852667, 856.8010146047068, -1780.8026309386028, 649.5717848685752, 65.62447326392157, 388.30062073400836, -353.1258883999071, -137.697950651705, 31.52142203119479, -106.39355730444561, 81.98057692092414, -63.14138686604906, 66.8688432765725, -31.850017336689234, -14.562814664564094, -114.9941249091529, 19.27422754978045, 6.86920436049806, -13.362968611123335, -88.88424698589336, -9.680549433746734, -6.256532059762719, -19.287322586292646, 30.85187752382363, -0.060728621664203786, -1.7204165771485123, 18.096287928493183, -5.394264557244732, 40.036620565000476, -33.18107886987201, 2.1644049971745574, -3.5496157331860445, 9.702406188567533, -7.574832588501394, 9.796433451870143, 2.157829321761511, -3.1218789726135014, 6.6756247366353705, -7.1588684345745435, -6.697268175137552, -1.4052090508045652, -1.9646060063565116, -5.4204105421624575, 3.32941670679557, -3.8499636318233144, -4.615352531498566, -0.07975953344401887, 3.391194367932755, -4.106358123047258, 1.501503218822819, 0.9563824343184066, -2.6973013366915453, 0.8798263076499495, -1.2664639901547048, 1.2677471291641744, 0.13775840341868673, -2.0083004655011223, 2.233635675897844, -1.9092080674585787, 1.3281780039048954, 1.7708225501106938, 0.11723884380987926, -0.7217945654510771, 0.020674104910288094, 0.6321921645490995, -0.12750860712933587, -0.7324806057772388, 0.387690081710673, 0.5704773577055064, -0.5561048571084157, 0.13303415142318897, -0.39533728660630274, -0.19314666767595423, -0.17136554860633169, -0.3105600644218782, 0.09227497024608411, 0.3640581811437116, 0.12456153887661969, -0.4900314009409783, -0.2105542507325282, -0.11287961723428896, -0.4896110545300445, -0.2576249538547408, 0.020036158749878297, 0.19004174677945684, 0.43512588848888356, -0.15984926722186188, -0.03699898168409543, -0.16184812575650298, -0.018640178199959223, -0.06970965394751483, 0.02644608400954951, 0.4184249457529603, 0.06710147780425979, -0.1455202420919477, -0.027435290436191195, 0.055771972451445606, -0.09475802435058256, 0.24207868559446766, -0.05282116924259128, -0.1882724966860181, -0.05346045629421603, -0.10831494984240475, -0.0036262226167114164, -0.026380022030597416, 0.020118181288705017, 0.03512820925391846, 0.029024371883522804, -0.050134402663047695, 0.01941571781524054, 0.00820689833365762, 0.059280726425585684, -0.07718365209846922, -0.05673269250273272, 0.03097365628437565, 0.0007247489018915587, 0.008388415516517256, 0.019782146741892603, 0.003491413958400358, 0.005668303566913835, 0.008251200563019978, 0.015433351818131769, -45677.15900523727, -35270.39884438008, 2267.207003198335, -1191.1392238864646, -9217.778145254324, -6487.442113541777, 1977.563990002017, -384.683440482459, 417.2958330191707, 1505.6034756644995, -1296.4796740764255, 1296.9782567511234, -1532.8032725051628, 763.5761959297247, -397.78094086763457, 121.24624369204128, -89.78381091020245, 213.19513876279552, -165.36046359811442, 640.92704626554, -401.7828241433446, 390.9911099113083, -57.551145006444244, -41.839503160858555, 15.936239072868943, -2.0392523861017935, 336.3201456281829, -73.38627863626829, 66.10159671873532, 182.3615296749582, 72.38177313651184, -90.25119327757986, -17.925027485815235, -108.47317896725087, -40.782806621426104, 10.81840844144535, -113.47085785014738, 7.401117080159565, -35.87903197304803, 48.44990333148476, -1.2911874372040941, 31.052766387021137, -46.407679059666634, -2.137969859856142, -8.047356738285956, 19.62222495451627, 47.331866174539606, -10.30983752828503, 32.73785066649522, 35.61237023526604, -21.833793443191905, 15.515250560628829, -18.228017196577966, 31.187530071127632, -10.47862606402154, 24.129944847637063, 17.559069110658655, 0.27976724230397565, -21.198569787673193, -10.267028017315965, -14.141963022314208, -0.23060674385638436, 0.048093751374977955, 12.486176328406522, -1.3179887624807236, -9.844332537017154, 8.507940653496625, 7.208818351665936, 0.35003177293489207, 3.336561774496886, -17.87136929788882, 3.298384632846501, 4.065275502652348, 0.5838928796595919, -1.8688169202853508, -2.0858179370859062, 10.805260776839916, -1.161361239751285, 0.5139664559664325, 9.610066827334734, -8.322993072753196, 6.596391468638075, -5.26976831783184, -10.136568595223316, -3.286119630005693, -2.776087843561424, 0.6610817112880003, -3.3081377910130456, -3.1606534414875025, -4.802264051421147, -0.42053504048542933, 1.04751435022348, -2.0027398840055426, -0.7128080735611775, -3.2859589176604125, 6.282427180425721, -0.292114027511964, -2.620706437027984, -1.2436108582999228, 0.7435183233386695, -1.791876414724893, 1.1640165499285202, 1.3502794798128557, 1.4153038271254221, -1.603968157755272, -2.355831056630759, 0.6105723770408265, -1.2417036287084446, 0.48372439921198307, 1.6135838193444663, -0.8807921694029766, -0.7780082661207643, -2.203099678033361, -2.6365658244923615, -0.2151468576146307, 0.8322523655868466, 0.1452918538606056, 1.8297486020755915, 0.9194536174975312, 0.284586599542326, -0.6484873785917946, -0.35718904216482295, 0.6501019583954584, 0.6185001916827755, -0.49165831969637885, -0.47251860344394636, -1.0720083892067827, -1.194027561403125]",-5.204782608695651,-3.5391891891891896,-5.693333333333334,-3.866666666666666,0.667,o-DCB,_,150.0,PEDOT:PSS,PDINO,3.16,3.16,0.83,9.53,40.0
"[-105631.73783275932, -74572.73247403272, 4329.753734020427, -2341.4243576849567, -5555.485216633641, -172.87819728700106, -798.6979620852667, 856.8010146047068, -1780.8026309386028, 649.5717848685752, 65.62447326392157, 388.30062073400836, -353.1258883999071, -137.697950651705, 31.52142203119479, -106.39355730444561, 81.98057692092414, -63.14138686604906, 66.8688432765725, -31.850017336689234, -14.562814664564094, -114.9941249091529, 19.27422754978045, 6.86920436049806, -13.362968611123335, -88.88424698589336, -9.680549433746734, -6.256532059762719, -19.287322586292646, 30.85187752382363, -0.060728621664203786, -1.7204165771485123, 18.096287928493183, -5.394264557244732, 40.036620565000476, -33.18107886987201, 2.1644049971745574, -3.5496157331860445, 9.702406188567533, -7.574832588501394, 9.796433451870143, 2.157829321761511, -3.1218789726135014, 6.6756247366353705, -7.1588684345745435, -6.697268175137552, -1.4052090508045652, -1.9646060063565116, -5.4204105421624575, 3.32941670679557, -3.8499636318233144, -4.615352531498566, -0.07975953344401887, 3.391194367932755, -4.106358123047258, 1.501503218822819, 0.9563824343184066, -2.6973013366915453, 0.8798263076499495, -1.2664639901547048, 1.2677471291641744, 0.13775840341868673, -2.0083004655011223, 2.233635675897844, -1.9092080674585787, 1.3281780039048954, 1.7708225501106938, 0.11723884380987926, -0.7217945654510771, 0.020674104910288094, 0.6321921645490995, -0.12750860712933587, -0.7324806057772388, 0.387690081710673, 0.5704773577055064, -0.5561048571084157, 0.13303415142318897, -0.39533728660630274, -0.19314666767595423, -0.17136554860633169, -0.3105600644218782, 0.09227497024608411, 0.3640581811437116, 0.12456153887661969, -0.4900314009409783, -0.2105542507325282, -0.11287961723428896, -0.4896110545300445, -0.2576249538547408, 0.020036158749878297, 0.19004174677945684, 0.43512588848888356, -0.15984926722186188, -0.03699898168409543, -0.16184812575650298, -0.018640178199959223, -0.06970965394751483, 0.02644608400954951, 0.4184249457529603, 0.06710147780425979, -0.1455202420919477, -0.027435290436191195, 0.055771972451445606, -0.09475802435058256, 0.24207868559446766, -0.05282116924259128, -0.1882724966860181, -0.05346045629421603, -0.10831494984240475, -0.0036262226167114164, -0.026380022030597416, 0.020118181288705017, 0.03512820925391846, 0.029024371883522804, -0.050134402663047695, 0.01941571781524054, 0.00820689833365762, 0.059280726425585684, -0.07718365209846922, -0.05673269250273272, 0.03097365628437565, 0.0007247489018915587, 0.008388415516517256, 0.019782146741892603, 0.003491413958400358, 0.005668303566913835, 0.008251200563019978, 0.015433351818131769, -5591.527114847875, 110512.51638443682, 4402.525842356583, -7896.525057380215, -4322.942643536753, -5348.205896766634, 1989.2119981158685, 1032.6325690794333, -699.2951332420075, 3882.472653649431, 708.2534377803936, 1171.8232396315152, 561.2441959126379, 48.582007182742814, -764.5438772453508, 374.96617250763745, -159.46768215820794, -103.600823117956, 1526.0647100506449, 567.8689428823475, 186.87642484472985, 420.6378134527247, 611.0582113943168, -556.5455573165412, 599.5580614655718, -51.13552461784593, 25.03930986643985, 67.90684888566328, 268.58054335547, 196.26911784238837, -158.34063053892274, 142.89605256100276, -52.62996160177414, -258.2786395008893, 220.546516332784, 154.3311965663467, -66.50484156556064, -20.304558186125576, -47.647960840919, -35.88015097366508, 182.60832784091377, -23.75862903511893, -9.772763301712473, 72.4413002967784, -28.240560705013323, -35.13548547549604, -32.410266458665575, 42.156416219238395, -5.790281854782933, -52.74884722877903, 34.890292416902184, 50.21881705877567, -13.042447912820904, 1.7019849362526145, 23.470932714583967, -20.175067017365535, -48.60820177151987, 13.194274408815716, 54.38300126382535, -0.10585818308311445, 11.410361402377092, 22.589610489651797, -16.92447874300413, -4.323247214164418, -0.9698239709356073, -39.59488190855374, 15.26160575566298, 0.8094506027079831, -2.7283101808010253, -4.84588038256603, 2.0402034537803004, 5.753133337707251, -9.551951979623567, -16.637162288382772, 0.028552960087051105, -3.510672668041167, -2.2539466461938424, 6.108041910314945, -3.221319791403033, 9.878196613928807, -1.4300861638761475, -6.065396415674613, 4.896728362844524, 2.128328693565848, 1.0814277475644474, 11.331741129865165, -1.6869477647328708, 5.933468655195895, 3.319605901092471, -6.044598507688235, -2.231579694450268, -2.2360363947733504, -0.7702831859824357, 3.0062623389412835, -0.2783071181053458, -1.9570151880273023, -2.1903051954519057, 1.3767211068783176, -7.355461686800963, 2.540927330932277, -4.268876209460807, -4.4987068687209835, 6.271380634831081, 4.209952380310893, 1.1488801765197394, 1.0360190936279299, -2.0449841164664093, -0.4323468197871527, 0.13288406080231852, -0.11315280906761416, -0.3349336248025594, -2.1190207519518722, -1.8352396423189674, 2.157477716578015, 0.35952904834319455, -0.1594920526948158, 1.5307961862461, -0.8755439925915915, 3.730289250235572, 1.5369351686200048, 3.2155247470132915, -1.3549357061327898, -1.4620594392660298, 1.4336748444811889, -1.4034991299750637, 0.1765192135431306, -0.45239863461193863, -3.2470463554371634]",-5.204782608695651,-3.5391891891891896,-5.455,-3.8625,0.667,o-DCB,_,25.0,PEDOT:PSS,PDIN,6.31,6.31,0.97,13.55,48.0