DA_mordred_pca,HOMO_D_eV,LUMO_D_eV,HOMO_A_eV,LUMO_A_eV,D_A_ratio_m_m,solvent,solvent_additive,annealing_temperature,hole_contact_layer,electron_contact_layer,PCE_percent,calc_PCE_percent,Voc_V,Jsc_mA_cm_pow_neg2,FF_percent
"[-105631.73783275932, -74572.73247403272, 4329.753734020427, -2341.4243576849567, -5555.485216633641, -172.87819728700106, -798.6979620852667, 856.8010146047068, -1780.8026309386028, 649.5717848685752, 65.62447326392157, 388.30062073400836, -353.1258883999071, -137.697950651705, 31.52142203119479, -106.39355730444561, 81.98057692092414, -63.14138686604906, 66.8688432765725, -31.850017336689234, -14.562814664564094, -114.9941249091529, 19.27422754978045, 6.86920436049806, -13.362968611123335, -88.88424698589336, -9.680549433746734, -6.256532059762719, -19.287322586292646, 30.85187752382363, -0.060728621664203786, -1.7204165771485123, 18.096287928493183, -5.394264557244732, 40.036620565000476, -33.18107886987201, 2.1644049971745574, -3.5496157331860445, 9.702406188567533, -7.574832588501394, 9.796433451870143, 2.157829321761511, -3.1218789726135014, 6.6756247366353705, -7.1588684345745435, -6.697268175137552, -1.4052090508045652, -1.9646060063565116, -5.4204105421624575, 3.32941670679557, -3.8499636318233144, -4.615352531498566, -0.07975953344401887, 3.391194367932755, -4.106358123047258, 1.501503218822819, 0.9563824343184066, -2.6973013366915453, 0.8798263076499495, -1.2664639901547048, 1.2677471291641744, 0.13775840341868673, -2.0083004655011223, 2.233635675897844, -1.9092080674585787, 1.3281780039048954, 1.7708225501106938, 0.11723884380987926, -0.7217945654510771, 0.020674104910288094, 0.6321921645490995, -0.12750860712933587, -0.7324806057772388, 0.387690081710673, 0.5704773577055064, -0.5561048571084157, 0.13303415142318897, -0.39533728660630274, -0.19314666767595423, -0.17136554860633169, -0.3105600644218782, 0.09227497024608411, 0.3640581811437116, 0.12456153887661969, -0.4900314009409783, -0.2105542507325282, -0.11287961723428896, -0.4896110545300445, -0.2576249538547408, 0.020036158749878297, 0.19004174677945684, 0.43512588848888356, -0.15984926722186188, -0.03699898168409543, -0.16184812575650298, -0.018640178199959223, -0.06970965394751483, 0.02644608400954951, 0.4184249457529603, 0.06710147780425979, -0.1455202420919477, -0.027435290436191195, 0.055771972451445606, -0.09475802435058256, 0.24207868559446766, -0.05282116924259128, -0.1882724966860181, -0.05346045629421603, -0.10831494984240475, -0.0036262226167114164, -0.026380022030597416, 0.020118181288705017, 0.03512820925391846, 0.029024371883522804, -0.050134402663047695, 0.01941571781524054, 0.00820689833365762, 0.059280726425585684, -0.07718365209846922, -0.05673269250273272, 0.03097365628437565, 0.0007247489018915587, 0.008388415516517256, 0.019782146741892603, 0.003491413958400358, 0.005668303566913835, 0.008251200563019978, 0.015433351818131769, 42609.75472544, 141189.71854474262, -23853.621559157193, -15971.401223283214, 16574.912211084586, -5481.163226822624, -4680.71829148164, -2327.023062685593, -4351.717472520526, 3870.1109412189217, 687.7443860654075, -884.5890025928793, -983.7417586852775, 3332.525941869608, -318.5570548908397, 1810.589969366393, 1077.2578309596506, -1580.2947961497034, -1177.637642224159, 1669.2723933978373, 3.3553367560139122, -195.4764481453676, -19.21129784451307, -573.8637875404233, -813.1486489787644, 160.12483707886895, -328.8859645892968, 515.2686560647213, -271.26204030513736, -404.20666918571845, -188.12195991446075, 92.4239463464047, -290.85812660821466, -45.64788654351469, 226.13546611916433, 124.64867343053878, -209.56743924978855, 263.05900818546235, -43.63959964346162, -204.071135274879, -168.84847977192504, -116.80793476514788, -79.53122522818518, -85.58218412665767, 191.75922577306318, -71.78919519109874, 31.904942385136366, -79.34522547420107, 12.098118856903113, 144.22366491129543, -101.30079480291555, 116.86895109393004, -40.60811315376918, -1.0315711513876522, 36.094181433890526, -20.055761161228645, -76.44668475550458, -53.7350647563145, -44.731138245584816, -52.62559016638886, 5.494202550140827, 13.469772859649566, -4.636057955632765, -17.19962553242904, 16.143655927481234, -16.7926814817598, -55.20954050347524, 40.55419889503071, -11.16792192710151, 3.5977491748773502, 36.28215441005135, 12.652507924582839, 20.247299663436024, 2.5796442786010374, 36.06990264836543, -12.70517305413648, 0.49407192418853896, 1.9787950556193579, -6.337305788813751, -15.40924927666299, -17.71243339828744, 17.837563086614338, -8.240227996114328, 7.88922532070859, -2.201943942924089, -11.639112457489247, -5.997270953992526, -23.173381013474454, -0.7666712237616231, -17.75823921941722, -7.6172047521405375, -0.9081599635897817, 13.377366435540779, -9.484651502254138, 7.578117365200143, 7.154404881966457, 1.9081670441196081, 5.66627380231008, -5.523810761571305, 9.26083011043599, -2.2586167990241037, 3.1703337046749027, -1.4480944501192274, -2.395543220771133, 3.5889066679246184, -3.6984035665519954, -6.262610298830179, -2.5323316306620924, -4.801313380467498, -3.601537333799513, 3.7323378414889063, 0.20949394942850574, 2.8159962291624367, 3.3287520113658076, 2.2886073120103916, 1.59036669592858, -0.09441599612307527, -2.9339874206014684, 1.543769475354381, 0.5296476086731019, -0.5924249322782889, -3.658853466723359, -1.7302388412627856, 3.204509576250125, -0.16298354113910563, -3.855023509738608, 1.9119944252060037, 3.9716522422498386]",-5.204782608695651,-3.5391891891891896,-5.42,-3.91,0.556,CB,_,25.0,MoOx,ZnO,9.82,9.8,0.72,20.95,65.0
"[-105631.73783275932, -74572.73247403272, 4329.753734020427, -2341.4243576849567, -5555.485216633641, -172.87819728700106, -798.6979620852667, 856.8010146047068, -1780.8026309386028, 649.5717848685752, 65.62447326392157, 388.30062073400836, -353.1258883999071, -137.697950651705, 31.52142203119479, -106.39355730444561, 81.98057692092414, -63.14138686604906, 66.8688432765725, -31.850017336689234, -14.562814664564094, -114.9941249091529, 19.27422754978045, 6.86920436049806, -13.362968611123335, -88.88424698589336, -9.680549433746734, -6.256532059762719, -19.287322586292646, 30.85187752382363, -0.060728621664203786, -1.7204165771485123, 18.096287928493183, -5.394264557244732, 40.036620565000476, -33.18107886987201, 2.1644049971745574, -3.5496157331860445, 9.702406188567533, -7.574832588501394, 9.796433451870143, 2.157829321761511, -3.1218789726135014, 6.6756247366353705, -7.1588684345745435, -6.697268175137552, -1.4052090508045652, -1.9646060063565116, -5.4204105421624575, 3.32941670679557, -3.8499636318233144, -4.615352531498566, -0.07975953344401887, 3.391194367932755, -4.106358123047258, 1.501503218822819, 0.9563824343184066, -2.6973013366915453, 0.8798263076499495, -1.2664639901547048, 1.2677471291641744, 0.13775840341868673, -2.0083004655011223, 2.233635675897844, -1.9092080674585787, 1.3281780039048954, 1.7708225501106938, 0.11723884380987926, -0.7217945654510771, 0.020674104910288094, 0.6321921645490995, -0.12750860712933587, -0.7324806057772388, 0.387690081710673, 0.5704773577055064, -0.5561048571084157, 0.13303415142318897, -0.39533728660630274, -0.19314666767595423, -0.17136554860633169, -0.3105600644218782, 0.09227497024608411, 0.3640581811437116, 0.12456153887661969, -0.4900314009409783, -0.2105542507325282, -0.11287961723428896, -0.4896110545300445, -0.2576249538547408, 0.020036158749878297, 0.19004174677945684, 0.43512588848888356, -0.15984926722186188, -0.03699898168409543, -0.16184812575650298, -0.018640178199959223, -0.06970965394751483, 0.02644608400954951, 0.4184249457529603, 0.06710147780425979, -0.1455202420919477, -0.027435290436191195, 0.055771972451445606, -0.09475802435058256, 0.24207868559446766, -0.05282116924259128, -0.1882724966860181, -0.05346045629421603, -0.10831494984240475, -0.0036262226167114164, -0.026380022030597416, 0.020118181288705017, 0.03512820925391846, 0.029024371883522804, -0.050134402663047695, 0.01941571781524054, 0.00820689833365762, 0.059280726425585684, -0.07718365209846922, -0.05673269250273272, 0.03097365628437565, 0.0007247489018915587, 0.008388415516517256, 0.019782146741892603, 0.003491413958400358, 0.005668303566913835, 0.008251200563019978, 0.015433351818131769, 45426.676796656946, 149817.88947955793, -29411.523980574875, -19576.576441888123, 22763.071994108628, -3198.101793168904, -7962.2455335208, -2274.3458158468165, -4355.267026195614, 3463.1605898133284, -1077.3303328497077, -941.7837672840478, -233.17666190572618, 4070.2447424687543, -137.1674956291156, 745.773050323985, 88.46617004523429, -1634.416388350934, -1413.7245796105708, 1789.6414407572865, 58.460672310222435, -604.8672492328083, 100.00171044333956, -714.19664352986, -577.2710951024133, 36.136291173618474, 27.54516289913522, 353.7399384755763, -311.6511995417063, -506.9068929194659, -116.5919341765755, 114.06489762980925, -115.91232610417069, 93.92810225388439, 293.2145554317977, 165.5111949587562, -126.14336018993038, 245.72360949309223, -125.4654342218759, -148.74606901336597, -196.50173776808535, -141.44143503599128, -102.52755267967723, -47.42877928915152, 154.57842086211, -104.98903840411486, -23.211392403482932, -68.70474328155717, 30.61353618036526, 129.05123042626636, -106.60339802201382, 164.68335125876314, -47.754784314826225, -43.7697097485206, 28.07099702837695, 16.996455487247772, -65.28115069329851, -20.56016974478888, -35.725413113866466, -9.679244881981276, 93.6562586465214, -0.47037314220234805, 35.685064512819224, -28.814490727864552, -51.10304829911945, 28.122678203443265, -23.587507320012275, 47.6265723521403, -22.01382367623276, 19.97107418132856, 19.810946708130288, -11.25728877696594, 22.575243522757575, -24.185998040447316, -12.67169393846769, -12.52329678258667, -9.400870386648648, -15.98097843084296, -25.62629210711154, -2.8450009600843202, -23.069743178267895, 11.267248624657611, 1.041380933855521, 13.456364673698346, -12.861198197958089, 12.868853869061951, 6.878541263122656, -1.224805081003268, -9.766545798982172, -3.2093380936823905, -14.754884574699872, 2.2507519175668165, 6.342506495919622, -5.960471431012593, 8.030106540093897, 6.233635710613498, 1.1600034280633764, 0.205995086283437, 2.35312602224689, -1.0091598951848937, 10.303426660297653, -2.818052956054835, 0.9039197951825781, 0.8597990730290475, -1.82353762273965, 1.145271367515491, 5.086618367889685, 4.758536001499621, 0.547270015607566, -1.808030592629322, 0.48331864792911006, -4.2656878653613575, -3.4804563993276076, 1.9833515971371156, -1.3420092488419684, 1.8353188419965534, -4.553328506773653, -0.5669979136958858, -4.251177812755955, 2.7765217294987536, 4.930860500743622, 4.354715817518397, 4.498581074036231, 2.2479351007739936, -1.599226917002838, 3.271752666321035, 1.3325125127078081, -2.6162265944573733]",-5.204782608695651,-3.5391891891891896,-5.31,-4.0,0.556,CB,_,25.0,MoOx,ZnO,9.43,9.39,0.61,22.0,70.0
"[-105631.73783275932, -74572.73247403272, 4329.753734020427, -2341.4243576849567, -5555.485216633641, -172.87819728700106, -798.6979620852667, 856.8010146047068, -1780.8026309386028, 649.5717848685752, 65.62447326392157, 388.30062073400836, -353.1258883999071, -137.697950651705, 31.52142203119479, -106.39355730444561, 81.98057692092414, -63.14138686604906, 66.8688432765725, -31.850017336689234, -14.562814664564094, -114.9941249091529, 19.27422754978045, 6.86920436049806, -13.362968611123335, -88.88424698589336, -9.680549433746734, -6.256532059762719, -19.287322586292646, 30.85187752382363, -0.060728621664203786, -1.7204165771485123, 18.096287928493183, -5.394264557244732, 40.036620565000476, -33.18107886987201, 2.1644049971745574, -3.5496157331860445, 9.702406188567533, -7.574832588501394, 9.796433451870143, 2.157829321761511, -3.1218789726135014, 6.6756247366353705, -7.1588684345745435, -6.697268175137552, -1.4052090508045652, -1.9646060063565116, -5.4204105421624575, 3.32941670679557, -3.8499636318233144, -4.615352531498566, -0.07975953344401887, 3.391194367932755, -4.106358123047258, 1.501503218822819, 0.9563824343184066, -2.6973013366915453, 0.8798263076499495, -1.2664639901547048, 1.2677471291641744, 0.13775840341868673, -2.0083004655011223, 2.233635675897844, -1.9092080674585787, 1.3281780039048954, 1.7708225501106938, 0.11723884380987926, -0.7217945654510771, 0.020674104910288094, 0.6321921645490995, -0.12750860712933587, -0.7324806057772388, 0.387690081710673, 0.5704773577055064, -0.5561048571084157, 0.13303415142318897, -0.39533728660630274, -0.19314666767595423, -0.17136554860633169, -0.3105600644218782, 0.09227497024608411, 0.3640581811437116, 0.12456153887661969, -0.4900314009409783, -0.2105542507325282, -0.11287961723428896, -0.4896110545300445, -0.2576249538547408, 0.020036158749878297, 0.19004174677945684, 0.43512588848888356, -0.15984926722186188, -0.03699898168409543, -0.16184812575650298, -0.018640178199959223, -0.06970965394751483, 0.02644608400954951, 0.4184249457529603, 0.06710147780425979, -0.1455202420919477, -0.027435290436191195, 0.055771972451445606, -0.09475802435058256, 0.24207868559446766, -0.05282116924259128, -0.1882724966860181, -0.05346045629421603, -0.10831494984240475, -0.0036262226167114164, -0.026380022030597416, 0.020118181288705017, 0.03512820925391846, 0.029024371883522804, -0.050134402663047695, 0.01941571781524054, 0.00820689833365762, 0.059280726425585684, -0.07718365209846922, -0.05673269250273272, 0.03097365628437565, 0.0007247489018915587, 0.008388415516517256, 0.019782146741892603, 0.003491413958400358, 0.005668303566913835, 0.008251200563019978, 0.015433351818131769, 397107.651342622, 61292.38808924581, -17129.23446333245, -8936.605060550668, 15613.441573640534, -7519.976550945691, 519.5825250611197, -4014.029603795495, -1972.6319032272645, 2126.9762656842913, 307.47103951740155, -1697.2437359624246, -2131.3174457696014, 750.6204802451027, -2566.722665618584, 2171.0415027651457, 1191.4026346772885, 143.9783865462009, -942.7645197418063, -441.9349054660914, -227.66328851679918, -441.568762043682, 823.0942845687229, -582.2910839351144, -121.37481271646652, -188.16930393264602, -149.4144691102225, 477.08890700853163, -189.66430029365893, -611.0420097066399, 266.9839720209037, 669.3037567479981, 80.71505634816361, 61.13664938244665, -423.419370563661, -294.18074328348973, -99.7143880164, -114.2486945454292, -209.31327277002765, 316.1776553407731, -214.32402580164182, -271.7635540517385, -28.647463624257853, -91.25026505300846, 254.9441448534453, 58.2649679812686, 91.94507936121929, 138.24973262080937, 63.31680171920988, 98.2033771106437, 111.82754698290425, -89.27907457275529, 83.61430018505638, -54.75252017932985, 16.899445239997135, 1.9864234991877652, 52.1707638214487, 54.2550304824199, -56.37537519349564, 10.004028248474015, -57.42832676694432, 78.41826316721135, -33.57368196271619, -18.270149512064435, 4.878618526158192, -2.2895169176445727, 34.395895628464885, -52.810117456848374, -16.14581435138171, -3.4878989720569678, 21.129087004129488, -7.694475741186071, -1.054769496996073, 3.251770736560644, 29.748617635176053, -22.77475669809499, -6.951638159670459, 8.970094920226572, -4.785677966450265, 3.0722125219964482, 16.832840019429906, -21.47938413499564, 18.94192397268467, -14.016241858352174, 14.45988023407412, 12.888437323049345, -9.973092312301766, 8.24946815570361, 0.6911426286457463, -3.691836276300151, 3.826316424346956, 3.661701534401061, -6.86464056235566, 6.913183391188255, 11.341518182647363, 1.5613156754040816, -1.8210769307390962, -0.04316238851993859, -4.02071879628694, 5.412135234311762, 3.545705548045502, 4.962332728714156, 3.0161979777431487, 8.003926072412334, -9.840773388355899, -1.9199966793860526, 11.394981174745826, -5.301998741350744, -0.695302638557763, 2.3729391238872637, -1.7537842661321363, -0.23536417605413362, 1.4646887751311226, -1.5154139863440577, -2.266989231233911, -0.3186001880193956, -0.6218832695523702, 0.15119068425111237, 4.978804341649834, -5.6971670384747455, 1.4099992015495384, -2.954473473789278, 3.083990374671224, 0.9172672609207453, 0.6232598440089596, 2.987868499295029, -1.389780868884202, -0.7870737729394648]",-5.204782608695651,-3.5391891891891896,-5.5,-3.63,0.667,o-DCB,DIO,25.0,PEDOT:PSS,PFN-Br,10.07,10.04,0.87,16.48,70.0