DA_mordred_pca,HOMO_D_eV,LUMO_D_eV,HOMO_A_eV,LUMO_A_eV,D_A_ratio_m_m,solvent,solvent_additive,annealing_temperature,hole_contact_layer,electron_contact_layer,PCE_percent,calc_PCE_percent,Voc_V,Jsc_mA_cm_pow_neg2,FF_percent
"[-96218.45766618998, 38190.55941397739, 9341.19863978244, -298.0321681723599, 3837.039845288656, -633.0815150821412, -1318.980794355729, 952.285808193773, 528.6042339012306, -265.75996339509254, 85.60403763240663, 327.51410203292335, 339.9238825739942, -217.3938336123946, 80.63195135367053, -89.32083633853233, 32.19492584684396, -21.519530699055707, -3.6266113552724115, -73.04368468656011, 86.79421267883791, 28.9157151412623, 61.36551771993493, -20.29937758864763, -20.5145225649866, 1.7418865694839667, -22.377181673057002, 12.371971410300219, 34.95291732805864, 10.187903617561325, 15.16604348820858, 8.612060636243209, -1.1743635221400766, 7.0376682218726625, -4.093627003889395, 9.922048209550361, -15.554840299560915, -5.613674452998811, -0.2972665085945745, 4.368352481075529, -3.6043195792310403, 1.354200703685919, 2.8516893216669104, -4.255469010620061, 8.299974464104451, 1.2791418187815111, 1.2654639155740988, -2.171801897186288, 0.7563528622149089, 1.6309678283868045, 0.8461705305940708, 3.200150728577338, 4.514637663770485, 2.047832060332592, 0.988495732690156, 3.0209744065138135, -1.0787642655477623, -0.5848165573459294, 0.7450505682325215, 0.7138952097940852, -0.4513392507860554, 0.44000043161623736, 0.9076636698868725, -0.7553614212014921, -1.1367214236829248, 1.4883333004282742, -0.6534390261587824, -0.2020478861539523, 0.5979438493412772, 0.35044047212350127, 0.5920200016964907, -0.4545510567545348, 1.2436977886366634, 0.06188974879205844, 0.28770923066137755, 0.34025436763747585, 0.054350949740208376, 0.15963437295462057, -0.5109982693033068, 0.3735134387368202, 0.6870145153430531, 0.38216412404326583, -0.20553217795980494, -0.08297866327442271, -0.09481622405384194, -0.0074888306561717854, 0.442508262678758, 0.06098427500299941, -0.4139541096843904, 0.14832844029545988, -0.294554145147611, 0.015892796356977712, 0.1548609075275289, -0.005654655004061704, 0.07842930267586645, -0.20841896255037717, 0.07855635365402769, 0.01820150849557578, 0.012441639298426566, -0.05940224021880214, 0.12084591158474112, 0.026787833651969892, 0.019668535058581682, 0.05537380493890609, -0.03933624965050253, 0.009307974571203914, -0.023474896973407267, 0.020049719383548492, 0.003215210697313786, -0.04194589694978035, 0.04089452902605473, 0.02749361263995076, -0.07262298298187164, 0.015379054954234306, 0.0506532373375812, 0.01506994111025417, -0.02377975685210143, 0.009711782809699865, -0.04845640783987859, 0.03322037544939782, -0.008444174408285043, -0.002255075440015908, 0.022455666638478533, -0.005795103590370054, 0.02421124183525336, 0.01760123567103644, -0.016655303062377946, 0.018813816162650987, -37754.164548048495, -19327.042529332553, -15096.940489656408, 5124.107716995979, -2154.6889828214166, 1154.9376605225696, 1225.2118962165387, -2116.4033669942964, 16.500482493262325, -1720.0642651725414, -760.1029011954531, -54.77246319097833, 217.44528576751952, 268.7169453870923, -262.71057769762945, 2081.913776897456, -873.5610183949954, 1357.4412985314614, 1054.818500898795, -34.19581816781712, 143.62778688039646, -141.87690890107496, -838.8494587502005, 168.34074185833325, 318.83367926612385, -380.45606262484546, 254.89445821479848, -30.339453091534484, -339.47549321221067, -179.96949248757863, 944.4708247420897, -86.19122413556865, 103.48052812283791, 236.29021809626656, -241.71363786973689, 151.6797874545058, -346.8995500163265, 49.24386285304729, 86.5851346766564, -77.5294777251572, 80.03961914625353, -72.9225371484754, 75.13789583005527, 41.28853113535645, 60.844977143676616, 37.14393038304006, -60.70218686509676, -116.3927317947664, 33.045199351876626, 31.109365015365377, 2.6467436187049103, 41.63691707150882, -36.2765127118376, 9.693841953856492, 3.9216480420155477, 14.561855139974107, -39.08230535168265, 17.1842811989196, 24.07565618396712, 0.955649516911393, -30.591365830128886, 20.00260200578805, 11.58020861750488, -8.49435984009073, 13.619330045874499, 21.355377823460458, -17.154710708494008, 11.017617007917785, 12.570276116311787, -5.67156394463424, 9.41932810368589, 12.505901876730915, 31.756153074795613, -21.743328066146724, 0.7921433595563743, -15.515239770107357, 6.869918621776785, -11.494396916177964, 8.11408329235615, -1.306084275912525, 11.64636333054139, -9.272785683069914, -1.5010147841781174, -4.289146846594747, 6.356619834967319, -1.8257329691289552, -12.281436319898422, 8.736543766461146, -2.4212124969293303, -2.996749100876027, -7.351645212273112, -7.673671029015495, -0.1174235984474521, 0.6546094236283793, 9.130058930783616, -1.0105393211578777, 6.480693927585847, -7.928213159709067, -0.115931891856909, -3.1882186678732225, 1.6202220306430561, -2.4197649292079877, 7.132517491487052, -4.2232763041721135, 2.6541404997097935, 6.1710455290790875, -4.151165304774768, 4.174127061777426, -3.0105771816961164, -4.7457002329064615, -4.066332901691378, -4.267053228793442, 5.793741811005358, -1.5774090898718554, 0.4992101764059482, -2.727724223387951, 0.709212760101849, 2.657898269528855, 9.130685313874622, 1.5023808678381907, -2.0814421644686187, -0.9497199510821095, -0.02457172280879938, -6.964924997495159, 4.736271494228836, 2.8269514984677926, 0.6126108528687588, 0.5993396958361128]",-5.297714285714285,-3.4170000000000003,-5.47,-3.76,1.0,CB,DIO,100.0,PEDOT:PSS,PFN-Br,11.28,11.28,0.98,16.14,71.32
"[-96218.45766618998, 38190.55941397739, 9341.19863978244, -298.0321681723599, 3837.039845288656, -633.0815150821412, -1318.980794355729, 952.285808193773, 528.6042339012306, -265.75996339509254, 85.60403763240663, 327.51410203292335, 339.9238825739942, -217.3938336123946, 80.63195135367053, -89.32083633853233, 32.19492584684396, -21.519530699055707, -3.6266113552724115, -73.04368468656011, 86.79421267883791, 28.9157151412623, 61.36551771993493, -20.29937758864763, -20.5145225649866, 1.7418865694839667, -22.377181673057002, 12.371971410300219, 34.95291732805864, 10.187903617561325, 15.16604348820858, 8.612060636243209, -1.1743635221400766, 7.0376682218726625, -4.093627003889395, 9.922048209550361, -15.554840299560915, -5.613674452998811, -0.2972665085945745, 4.368352481075529, -3.6043195792310403, 1.354200703685919, 2.8516893216669104, -4.255469010620061, 8.299974464104451, 1.2791418187815111, 1.2654639155740988, -2.171801897186288, 0.7563528622149089, 1.6309678283868045, 0.8461705305940708, 3.200150728577338, 4.514637663770485, 2.047832060332592, 0.988495732690156, 3.0209744065138135, -1.0787642655477623, -0.5848165573459294, 0.7450505682325215, 0.7138952097940852, -0.4513392507860554, 0.44000043161623736, 0.9076636698868725, -0.7553614212014921, -1.1367214236829248, 1.4883333004282742, -0.6534390261587824, -0.2020478861539523, 0.5979438493412772, 0.35044047212350127, 0.5920200016964907, -0.4545510567545348, 1.2436977886366634, 0.06188974879205844, 0.28770923066137755, 0.34025436763747585, 0.054350949740208376, 0.15963437295462057, -0.5109982693033068, 0.3735134387368202, 0.6870145153430531, 0.38216412404326583, -0.20553217795980494, -0.08297866327442271, -0.09481622405384194, -0.0074888306561717854, 0.442508262678758, 0.06098427500299941, -0.4139541096843904, 0.14832844029545988, -0.294554145147611, 0.015892796356977712, 0.1548609075275289, -0.005654655004061704, 0.07842930267586645, -0.20841896255037717, 0.07855635365402769, 0.01820150849557578, 0.012441639298426566, -0.05940224021880214, 0.12084591158474112, 0.026787833651969892, 0.019668535058581682, 0.05537380493890609, -0.03933624965050253, 0.009307974571203914, -0.023474896973407267, 0.020049719383548492, 0.003215210697313786, -0.04194589694978035, 0.04089452902605473, 0.02749361263995076, -0.07262298298187164, 0.015379054954234306, 0.0506532373375812, 0.01506994111025417, -0.02377975685210143, 0.009711782809699865, -0.04845640783987859, 0.03322037544939782, -0.008444174408285043, -0.002255075440015908, 0.022455666638478533, -0.005795103590370054, 0.02421124183525336, 0.01760123567103644, -0.016655303062377946, 0.018813816162650987, -36018.8266295483, -6531.2657976064465, -13797.924419110079, 4490.710408578097, -2805.859279380726, 1156.4225064562102, 1627.5604849991696, -556.5128310623002, 617.0180222560983, 860.2773097485301, 1555.9527617842982, 7.365254592927386, -841.528402298583, 270.3303220693957, 1930.0588470662663, 1363.5105301920348, -276.78579375232806, 424.9685030359528, 153.7544361374595, -325.85508338918436, 402.2594402600731, -500.42213071110933, 150.80937178865992, 992.5026408031216, -217.0010253902635, 0.6850826269133421, 60.69082554091527, -206.61551906235525, -388.0709264462928, -362.6587844602043, 340.55244027486594, -53.13747091618876, 403.3025473910335, 207.52695751047474, 61.050171882844126, 16.969317574866828, 41.258778824731465, -183.09671667747088, 38.594092118464815, -47.409568619631585, -65.84172762877509, -80.67288275130163, -27.944784476064733, -126.66380400347765, -88.90133438509409, -47.170156869111224, 49.57828080583955, -9.362065279496619, 20.250687288005608, -0.07767502277044969, 22.24152207759353, -4.667199896794713, -68.17779603960685, -5.652009269739985, 22.052798401766537, 5.138613218808068, -42.28404199296273, 31.27290260544762, -39.87344201709735, -0.09801788560528735, 23.44682006114406, 1.0958416581724455, 6.88625942032602, 34.533310418086586, 14.263455877212802, -10.334651666677551, 14.049757073103628, -15.49091440471375, -8.65290278156354, -32.469162861644115, 28.43619636141108, -8.22974910476983, -4.080706815055638, -10.962563150527602, -1.6546179235848355, 7.71053946829084, 6.905361709722852, -0.9285887266458426, 4.455621380399178, 12.43302155002138, -8.998818790811786, -2.553768295086412, 5.820007867260217, -4.2569868911040025, 2.1595650902900303, -1.0267483804050253, 5.125942924173223, -0.6188641581709806, 3.4834342942593937, -2.4731760456581187, 0.6397697476822515, -5.737813930898525, 0.8495587925158237, 2.3716046478035615, -1.758573137326934, -1.8523069618003563, 0.2416295073629655, -2.002122328934411, -1.7685853999649614, 2.4927154101765403, 2.9248569490044733, 0.9446920390872453, 0.999592935865274, -1.7152119099890388, 0.6652149706349935, -1.878367864481321, 0.9455553227865701, 1.8635052604915876, -2.630669494347467, 1.2982243474306552, -0.5960396119137741, 0.5402890497175701, 0.4822698773327474, 4.653496074324556, -1.151761829503318, -2.0620141330270947, -0.6108861323895756, 0.6330662246856944, -0.3111626465405184, -0.9777770973269788, -1.2230239968944634, -1.42453016322446, -0.5620380966635188, 2.2462648213284693, 1.0336244247294406, -0.9801269689165837, -2.0317617726223016, -0.9210981810334564]",-5.297714285714285,-3.4170000000000003,-5.57,-3.93,1.0,CB,DIO,120.0,PEDOT:PSS,PDIN,12.03,12.03,0.896,18.07,74.3
"[-105631.73783275932, -74572.73247403272, 4329.753734020427, -2341.4243576849567, -5555.485216633641, -172.87819728700106, -798.6979620852667, 856.8010146047068, -1780.8026309386028, 649.5717848685752, 65.62447326392157, 388.30062073400836, -353.1258883999071, -137.697950651705, 31.52142203119479, -106.39355730444561, 81.98057692092414, -63.14138686604906, 66.8688432765725, -31.850017336689234, -14.562814664564094, -114.9941249091529, 19.27422754978045, 6.86920436049806, -13.362968611123335, -88.88424698589336, -9.680549433746734, -6.256532059762719, -19.287322586292646, 30.85187752382363, -0.060728621664203786, -1.7204165771485123, 18.096287928493183, -5.394264557244732, 40.036620565000476, -33.18107886987201, 2.1644049971745574, -3.5496157331860445, 9.702406188567533, -7.574832588501394, 9.796433451870143, 2.157829321761511, -3.1218789726135014, 6.6756247366353705, -7.1588684345745435, -6.697268175137552, -1.4052090508045652, -1.9646060063565116, -5.4204105421624575, 3.32941670679557, -3.8499636318233144, -4.615352531498566, -0.07975953344401887, 3.391194367932755, -4.106358123047258, 1.501503218822819, 0.9563824343184066, -2.6973013366915453, 0.8798263076499495, -1.2664639901547048, 1.2677471291641744, 0.13775840341868673, -2.0083004655011223, 2.233635675897844, -1.9092080674585787, 1.3281780039048954, 1.7708225501106938, 0.11723884380987926, -0.7217945654510771, 0.020674104910288094, 0.6321921645490995, -0.12750860712933587, -0.7324806057772388, 0.387690081710673, 0.5704773577055064, -0.5561048571084157, 0.13303415142318897, -0.39533728660630274, -0.19314666767595423, -0.17136554860633169, -0.3105600644218782, 0.09227497024608411, 0.3640581811437116, 0.12456153887661969, -0.4900314009409783, -0.2105542507325282, -0.11287961723428896, -0.4896110545300445, -0.2576249538547408, 0.020036158749878297, 0.19004174677945684, 0.43512588848888356, -0.15984926722186188, -0.03699898168409543, -0.16184812575650298, -0.018640178199959223, -0.06970965394751483, 0.02644608400954951, 0.4184249457529603, 0.06710147780425979, -0.1455202420919477, -0.027435290436191195, 0.055771972451445606, -0.09475802435058256, 0.24207868559446766, -0.05282116924259128, -0.1882724966860181, -0.05346045629421603, -0.10831494984240475, -0.0036262226167114164, -0.026380022030597416, 0.020118181288705017, 0.03512820925391846, 0.029024371883522804, -0.050134402663047695, 0.01941571781524054, 0.00820689833365762, 0.059280726425585684, -0.07718365209846922, -0.05673269250273272, 0.03097365628437565, 0.0007247489018915587, 0.008388415516517256, 0.019782146741892603, 0.003491413958400358, 0.005668303566913835, 0.008251200563019978, 0.015433351818131769, -47061.346377817725, -32550.379112316685, 40550.983831029705, -9441.04337117991, -6252.1351477902335, 2085.0291421412403, -1552.387493024913, 3722.1171100424785, 2123.1949749461382, -326.2493455055114, 3052.449030344792, 1492.416981216983, 476.61566413370076, 1685.1543205589828, -294.1074355368781, 762.9252013636086, -1265.0773104442646, 918.7733873606583, 300.9944800598263, -585.3109337458817, 166.56863481495998, 353.13240716496216, -63.62168676095209, -50.13669652786621, -706.407423760374, 464.09567251700355, 60.58395664611302, 11.641161881455602, 105.40909719518629, -259.27524367116814, -174.3808726616842, 16.217566525245473, 184.33640903905288, 15.522626293056533, 48.466138418481435, -65.76678661904666, 50.93983381039723, -30.875776555012706, 77.70634576983578, -2.0373748811339283, -51.766992972370836, 57.33031599711856, 6.984343850105603, 16.223488357221008, 72.62662998169307, 11.281978689071767, -14.118022884744619, -4.6619554126757095, -1.5093377622519313, 61.34159196844323, -12.236969082312743, 2.982377634670783, 27.64009937402959, 39.753594893458555, 25.476061370954085, -15.35173157081364, 3.589626577590323, -12.033348668539006, 25.9410635205368, -33.66597131686791, -11.938568174076337, -29.658730994450053, 15.686145754333495, 14.374069186230013, -13.7764428265003, -0.4036291719397207, -11.98934839293759, -13.93164029405244, -14.811753338697821, 10.954080709023607, -1.5143278044896036, -2.0350252288497632, -4.2361096973461585, 4.242970575910659, 13.657890152059291, 23.732823009555943, 7.638522121473947, -1.6281321254944476, -4.010968018015156, -8.603553944434541, 6.018706204429778, -6.191297018537199, 15.979392222203499, 0.7222203647654979, 4.072424677464021, 2.145895383385035, -23.352411999540543, -4.817236429020518, -10.867944803162203, -3.003279227710814, -5.497166422956148, 3.4190127213561112, -0.45296488524614986, 0.6707415390161486, 0.6080535671625427, 10.87500457202011, 2.241804088867571, -1.2571575814990972, 0.9234294919405386, 1.2165999169530934, -0.26996559377213836, 0.29978531097981653, 11.237444489840184, -0.11001046351602994, -5.191500536429409, -2.816665953092027, -1.059182505158489, 3.501481599627974, 0.7609422869957463, 0.08627107626518438, 0.028237157729837037, -4.367692078081188, 2.357213061950958, -0.8632692215541091, 3.6441336651615073, -0.023100731736775515, 3.3993428311384406, 1.071444791053171, -1.8516983098457516, 0.4296801387211069, 0.05368005103219353, 1.5431789766560642, -0.3964193389339954, -1.4117665900565335, -2.0009291442854487, -0.18298918816048726, 2.0968454033341004, -2.1414914829038043]",-5.204782608695651,-3.5391891891891896,-5.42,-3.85,0.5,o-DCB,_,25.0,MoOx,ZnO,5.77,5.71,0.9,11.85,53.5