DA_mordred_pca,HOMO_D_eV,LUMO_D_eV,HOMO_A_eV,LUMO_A_eV,D_A_ratio_m_m,solvent,solvent_additive,annealing_temperature,hole_contact_layer,electron_contact_layer,PCE_percent,calc_PCE_percent,Voc_V,Jsc_mA_cm_pow_neg2,FF_percent
"[-100947.51380805708, 41701.46417650341, 6953.674075646009, -2111.4395675277747, 2032.5634357576614, -1822.103277822503, -774.1269710602476, 3802.7013953885617, -1285.1185302162485, 2268.433362001234, -817.6874073706665, -2241.44274456912, -1265.9441168008739, 18.599290532326222, 931.2800854963973, 1162.770242087138, -189.154231031292, -260.8876402340191, 842.8417692975282, 699.6245754038855, -632.1639949506806, 813.5543872757447, -77.45999863759313, 112.91534753657459, 70.94457946446717, 245.22398815649507, 511.4097023665664, -197.4624655274542, 213.96638157581046, 21.44294284451016, -313.677081108506, 481.63580766902464, 104.38968274581755, -79.05280652212794, -44.46773471124132, -185.13639894332056, 334.3472130539784, -79.71955609233575, -155.55057180144684, 162.37388861309586, -76.75085559834964, -113.11639654738043, 17.055397142679258, -121.46010654625553, 11.399776714465787, -39.946783450280165, 110.72184756438344, -0.3107288570434825, -144.8432520230089, -57.08755527715247, -15.589524155942966, 70.12284661676128, -44.495845684691325, 20.30683948866783, -44.550393321738696, -1.3777341746996754, -39.57481031486207, 41.069878898023624, 55.138644761950104, 71.92163744620804, 45.04126291426436, 13.712844471724534, -46.4084702426604, -10.783503443005742, -33.39608639158485, 5.438669884065915, -33.76686002916184, 39.04764719681165, -6.7737324092117, -40.4784569940166, 14.98323533632771, -16.64031305274402, 12.427820175242214, -14.891615865384194, 5.139167920144531, 23.971570010793705, -3.6019417910621403, -6.68449314814347, 7.854631711243706, 18.067515912653278, -13.006327304973851, 1.88564297925514, -8.677217480812471, 1.425186190713048, 6.209875047343269, -8.777683077024456, -6.28712794381937, -7.876618242637841, 9.343915482833898, 8.248102906131304, 9.987354013635803, -10.300558024993052, 2.5248023410551736, 2.1307606383585576, 4.675297559183642, 0.8002877266226518, -7.833035497354318, 0.9300590094478807, -4.7001299527023574, 5.484839179088855, 4.614787984886098, 0.47245149355736915, 1.1203882340296287, -1.7593261710319155, 3.8599478634542095, -3.117649895666121, -1.7359178014201895, -1.8811662555056192, 2.214442937787947, -0.9853822126528908, -1.2434251288086156, -1.2279852471041908, -0.08258038946343538, 1.5594484012304077, -1.4408119678165558, -2.763474133708187, -0.08547312616828773, -2.390981745691267, 2.074922868845859, -0.006706545092750815, -0.3283406415753938, 1.4014976716215894, 0.5835643255105154, -0.5507142798648275, -0.5789773437895782, 0.7723622158054884, -0.35545762009625914, 0.33940054831858646, -35133.7948384405, -8229.633002095004, -12056.006677875394, 2789.4971387186242, -6137.391894299175, 347.2184125819449, 313.56897363838834, -763.0529003245208, -753.2713027045285, -463.7277561870353, 442.3965848250751, 144.76451622384843, -82.11980750356622, -241.51593372271438, -166.11661214239564, 161.0117266220481, 156.82867720048182, 45.04865333330787, -64.48252064437057, -23.748315205729725, 175.35196382208807, 75.91403661606171, -286.96291437231935, 32.43950758749915, 86.82629792655737, 17.332913738685377, -52.109964316334626, 147.96654517479746, -66.74616426635947, -30.131339361474026, -64.6842293414586, -20.401781789495175, -60.814467118058936, -33.126806506498966, -10.042152655421425, -51.312256336249625, 3.144366245462294, -3.71627624153237, 36.40376072528973, 0.4548085410526568, 8.77647477218483, -28.125389876423775, 2.49569238193056, -12.913454340121639, 4.879924205036842, -2.3377624767900205, -6.672954601090133, 6.202739337502919, -10.893634984359561, 12.032465269856662, -12.063043989303566, -0.34303639091355365, 5.016332629152714, 0.12086901313429266, -9.726503251923347, 6.137316418082435, -7.076062334661124, 7.3653218625323404, 3.5070409455817924, 2.301233891752652, 4.71929931757742, -1.926768238609477, -5.728496834707801, 0.05692591901005528, -4.227503980921206, 0.19035190488374848, -0.8161738905036682, -0.4714746073762517, 0.016165936440852846, 1.5320458160517845, -3.625921731256579, -1.3255082942715024, 1.0395488339674301, -2.629665545987187, 0.2524077098567754, -0.25955818195747327, -0.9738252465763915, -0.4436497764515863, 0.3498051835956417, -0.5126149363315342, -1.3513245580317377, 0.2982577901396226, 2.0905817811936993, -1.423686297008441, -0.5684747340003078, 0.06286388557579237, 1.556243536792186, 0.47664310848808533, 1.3381005503037402, 1.3274012761810585, -0.18103683328045683, 0.13158711423599634, -0.35216959119522606, 0.24205021276454275, -0.19716096928100413, 0.3411096425350699, 0.8983261097286253, -0.17492589746772325, -0.26859509238574053, -0.13780411398829884, 0.2481245213135157, -0.23952231622609954, -0.5478870274515413, 0.5484971724321479, 0.500298126046161, -0.06133469645540579, -0.3248140481935957, 0.313231347131103, 0.63465776568537, 0.5975958356568718, -0.21144062004099506, -0.6749983329678217, -0.32992632468938865, 0.3033181272449559, -0.12238950451054809, 0.06097724241096092, 0.2639722379565246, -0.2236154184593273, 0.06848499166746613, -0.30866773947200965, -0.13429432396519503, -0.2605157287139417, 0.0014308004863301527, 0.11389554910299449, -0.08035043575031331, -0.3428563737769905, -0.05785525732550667, -0.006029155567380151]",-5.37,-3.53,-5.574146341463415,-3.915,0.667,CF,DPE,25.0,PEDOT:PSS,Ca,8.3,8.25,0.92,13.8,65.0
"[-43873.94850685017, 49033.33381490589, -6034.218590884158, 8222.980800769645, -6619.38690454033, 4364.436263815493, -624.7452915254999, 728.331665258333, 864.8462726937903, -1352.314851096977, -199.72625058250105, -2009.8231769429558, 1089.9847218175798, 594.2860766812419, -132.57515562227002, -46.15316996213312, -267.9347410425969, -1110.9090719519143, -126.85403569508196, -387.14529257430513, -22.916818792850194, 467.5067326590096, 443.6069446211499, -295.2837313532456, 890.7059241920922, -162.4971706165926, -274.09647037305353, 112.89126181362751, -177.89017285604393, -102.52312512262853, 155.44021531928556, 10.178660036251266, -17.702214062227597, -283.224165221647, -226.86794995103412, -118.2101074722836, -116.15737773240676, -33.01196878954448, -87.0043253644281, -66.22753872144624, -12.702679379662172, 35.463229935179015, -23.883968297258804, 65.03006600038826, 33.437607093749136, -12.472568235154199, -33.93083984235598, 16.241030987164315, -69.64668002579492, 29.455394189415387, -33.66617136568625, 48.93067043167876, -64.31683119548326, 2.8507393400756342, -103.55072425229955, 6.495580342438686, -18.746179525297876, -1.5629446602753312, -15.28767416897017, -22.98745446437036, -5.926306514838098, -28.587634545964335, 16.624496429758807, -29.777616282342535, -3.1590685929606437, 24.144439541150174, -0.34254960176222937, -9.817295136623564, -20.1353299963354, 8.527693638839104, 14.491616889541739, 10.734080409843898, -18.715469351496818, 0.06819732119295452, 9.595328492468461, 4.208471977082276, -6.044189400739324, 11.77872138779758, -5.8750615425218795, 1.3888035275425423, -15.227114870979335, -1.0122661164660443, -7.548819783810615, 2.9831617198819593, -9.056481827850646, 10.25732027660839, 6.428825686250404, 5.868970803773308, 2.371784305508687, 3.978334663721853, 7.9511985826466685, -1.3236410821588365, -4.001732307065328, -4.170498206762684, 6.973055315751875, 6.4262089874184625, 1.293860374191965, 7.232496154495422, -4.800935071941652, 1.1582963983894623, -0.9342017186992209, 3.8274250403330408, -6.38779738795907, -1.780200525703318, -4.688273876899711, -0.07447944072219315, -0.11367621106234971, 0.8126744656608975, -0.6214035518690988, 0.8725717692394532, -0.48654480465120287, 0.15899544270859423, 1.9788266138782848, 0.7239394479875294, 0.29721403691882387, 1.3541598755836306, 0.20163525902142787, 0.34757446630849387, -1.0544640405374466, 1.1633904399144868, -0.901166226293908, -0.6020995090981032, 0.7509745676280839, -2.1961410909799355, 2.5551884911744054, 0.8959700430883473, 0.4316054453326963, 0.6684850083971199, -35133.7948384405, -8229.633002095004, -12056.006677875394, 2789.4971387186242, -6137.391894299175, 347.2184125819449, 313.56897363838834, -763.0529003245208, -753.2713027045285, -463.7277561870353, 442.3965848250751, 144.76451622384843, -82.11980750356622, -241.51593372271438, -166.11661214239564, 161.0117266220481, 156.82867720048182, 45.04865333330787, -64.48252064437057, -23.748315205729725, 175.35196382208807, 75.91403661606171, -286.96291437231935, 32.43950758749915, 86.82629792655737, 17.332913738685377, -52.109964316334626, 147.96654517479746, -66.74616426635947, -30.131339361474026, -64.6842293414586, -20.401781789495175, -60.814467118058936, -33.126806506498966, -10.042152655421425, -51.312256336249625, 3.144366245462294, -3.71627624153237, 36.40376072528973, 0.4548085410526568, 8.77647477218483, -28.125389876423775, 2.49569238193056, -12.913454340121639, 4.879924205036842, -2.3377624767900205, -6.672954601090133, 6.202739337502919, -10.893634984359561, 12.032465269856662, -12.063043989303566, -0.34303639091355365, 5.016332629152714, 0.12086901313429266, -9.726503251923347, 6.137316418082435, -7.076062334661124, 7.3653218625323404, 3.5070409455817924, 2.301233891752652, 4.71929931757742, -1.926768238609477, -5.728496834707801, 0.05692591901005528, -4.227503980921206, 0.19035190488374848, -0.8161738905036682, -0.4714746073762517, 0.016165936440852846, 1.5320458160517845, -3.625921731256579, -1.3255082942715024, 1.0395488339674301, -2.629665545987187, 0.2524077098567754, -0.25955818195747327, -0.9738252465763915, -0.4436497764515863, 0.3498051835956417, -0.5126149363315342, -1.3513245580317377, 0.2982577901396226, 2.0905817811936993, -1.423686297008441, -0.5684747340003078, 0.06286388557579237, 1.556243536792186, 0.47664310848808533, 1.3381005503037402, 1.3274012761810585, -0.18103683328045683, 0.13158711423599634, -0.35216959119522606, 0.24205021276454275, -0.19716096928100413, 0.3411096425350699, 0.8983261097286253, -0.17492589746772325, -0.26859509238574053, -0.13780411398829884, 0.2481245213135157, -0.23952231622609954, -0.5478870274515413, 0.5484971724321479, 0.500298126046161, -0.06133469645540579, -0.3248140481935957, 0.313231347131103, 0.63465776568537, 0.5975958356568718, -0.21144062004099506, -0.6749983329678217, -0.32992632468938865, 0.3033181272449559, -0.12238950451054809, 0.06097724241096092, 0.2639722379565246, -0.2236154184593273, 0.06848499166746613, -0.30866773947200965, -0.13429432396519503, -0.2605157287139417, 0.0014308004863301527, 0.11389554910299449, -0.08035043575031331, -0.3428563737769905, -0.05785525732550667, -0.006029155567380151]",-5.14,-3.35,-5.574146341463415,-3.915,1.0,CB,DIO,25.0,MoOx,ZnO,7.15,7.18,0.82,13.73,63.8
"[-60743.03721288557, -9706.05123114756, 10115.780443561162, 7151.0493592586745, -6253.5905417934755, 6209.927813756713, 2706.3904708416576, -4185.2076736202225, 1453.496864953274, -3194.841242852022, 801.8570445275101, -933.4398738981756, -611.4938021022651, 1383.1564914309483, -428.21527057958747, -382.9165186097045, -576.7422515556061, -1122.818510466285, -1624.6023058472247, -43.07924058541026, -360.8467203326702, 375.8848389173379, -85.38676370095156, -575.7954248791291, 416.73742134595886, -562.8057548399354, 93.5676199602457, 344.3770119476134, -142.62719308467894, 219.75929371593853, -324.2926782192979, 192.0706656090147, 212.279652954588, -324.87272948633694, -29.012976381172393, -24.023300792588, -227.56186499206206, -237.02035158604923, -125.83587860914217, -24.54724870958284, -58.68360653059294, -91.22418756541305, -119.66266328900696, -42.0273355457909, 127.35702883733211, -108.94258852266252, -105.51350618347561, 23.2614162187283, 53.520779516803096, 32.44482939323825, -119.47261529025302, -9.55313746656366, 29.464837367620934, 8.002742863998844, -137.7671797233858, 8.095311430107285, 11.885825642448799, -25.640209385414884, -13.649353552379559, -28.118018492305907, 25.881545444492904, 16.18384794498607, 95.4868762574578, -36.13185476906757, -14.305594336649254, -17.52583407956297, -16.116085361359197, 15.8320367953751, -1.0733146508670837, -36.59326740316898, -9.085070785501404, -21.42989549098035, -2.398068246379919, 7.89072476338766, -11.260524572486847, 12.82541856052124, 22.024711933078805, 15.956841846874728, 30.77948801175021, -8.238565886708335, 6.540206552434743, 13.308000592791345, 1.0689969186380464, 6.807099832604522, 3.5279220872942805, -13.42438380619004, 6.339482651629095, -0.8523236182163294, 7.410455484924157, -9.799660815360602, -8.084826417646472, -1.8638506991506336, 5.21132803178744, 0.3363248141133157, -1.8304710000154811, 1.342674362638007, 2.4705505314404146, -8.483224043715245, 4.72766875928439, 3.0113395020077007, 1.272933813299029, 0.3067552908598543, 4.958162206526728, 2.0213021867207663, 0.6038612616129049, 2.9401180807935883, -2.4965292797719325, 0.29406708446212804, -1.8375441469470042, 2.1158036943618725, -0.9522125616455703, -2.7645097767549967, -1.1459433375927874, -1.139103790064964, -0.6866180372463395, -1.0334119433778115, -0.9602063578562123, 0.9157121029486497, -1.060059638990249, -1.4865496204647233, -0.5350259775173898, 0.9443497114360031, 0.4624409678133148, 0.15782669492248347, -0.3616691730158763, 0.10858684689769765, 0.7862533344321063, 0.039707377428714, -35133.7948384405, -8229.633002095004, -12056.006677875394, 2789.4971387186242, -6137.391894299175, 347.2184125819449, 313.56897363838834, -763.0529003245208, -753.2713027045285, -463.7277561870353, 442.3965848250751, 144.76451622384843, -82.11980750356622, -241.51593372271438, -166.11661214239564, 161.0117266220481, 156.82867720048182, 45.04865333330787, -64.48252064437057, -23.748315205729725, 175.35196382208807, 75.91403661606171, -286.96291437231935, 32.43950758749915, 86.82629792655737, 17.332913738685377, -52.109964316334626, 147.96654517479746, -66.74616426635947, -30.131339361474026, -64.6842293414586, -20.401781789495175, -60.814467118058936, -33.126806506498966, -10.042152655421425, -51.312256336249625, 3.144366245462294, -3.71627624153237, 36.40376072528973, 0.4548085410526568, 8.77647477218483, -28.125389876423775, 2.49569238193056, -12.913454340121639, 4.879924205036842, -2.3377624767900205, -6.672954601090133, 6.202739337502919, -10.893634984359561, 12.032465269856662, -12.063043989303566, -0.34303639091355365, 5.016332629152714, 0.12086901313429266, -9.726503251923347, 6.137316418082435, -7.076062334661124, 7.3653218625323404, 3.5070409455817924, 2.301233891752652, 4.71929931757742, -1.926768238609477, -5.728496834707801, 0.05692591901005528, -4.227503980921206, 0.19035190488374848, -0.8161738905036682, -0.4714746073762517, 0.016165936440852846, 1.5320458160517845, -3.625921731256579, -1.3255082942715024, 1.0395488339674301, -2.629665545987187, 0.2524077098567754, -0.25955818195747327, -0.9738252465763915, -0.4436497764515863, 0.3498051835956417, -0.5126149363315342, -1.3513245580317377, 0.2982577901396226, 2.0905817811936993, -1.423686297008441, -0.5684747340003078, 0.06286388557579237, 1.556243536792186, 0.47664310848808533, 1.3381005503037402, 1.3274012761810585, -0.18103683328045683, 0.13158711423599634, -0.35216959119522606, 0.24205021276454275, -0.19716096928100413, 0.3411096425350699, 0.8983261097286253, -0.17492589746772325, -0.26859509238574053, -0.13780411398829884, 0.2481245213135157, -0.23952231622609954, -0.5478870274515413, 0.5484971724321479, 0.500298126046161, -0.06133469645540579, -0.3248140481935957, 0.313231347131103, 0.63465776568537, 0.5975958356568718, -0.21144062004099506, -0.6749983329678217, -0.32992632468938865, 0.3033181272449559, -0.12238950451054809, 0.06097724241096092, 0.2639722379565246, -0.2236154184593273, 0.06848499166746613, -0.30866773947200965, -0.13429432396519503, -0.2605157287139417, 0.0014308004863301527, 0.11389554910299449, -0.08035043575031331, -0.3428563737769905, -0.05785525732550667, -0.006029155567380151]",-5.34,-3.53,-5.574146341463415,-3.915,1.0,CB,DIO,25.0,MoOx,ZnO,9.17,9.18,0.9,15.38,66.3