DA_mordred_pca,HOMO_D_eV,LUMO_D_eV,HOMO_A_eV,LUMO_A_eV,D_A_ratio_m_m,solvent,solvent_additive,annealing_temperature,hole_contact_layer,electron_contact_layer,PCE_percent,calc_PCE_percent,Voc_V,Jsc_mA_cm_pow_neg2,FF_percent
"[-96218.45766618998, 38190.55941397739, 9341.19863978244, -298.0321681723599, 3837.039845288656, -633.0815150821412, -1318.980794355729, 952.285808193773, 528.6042339012306, -265.75996339509254, 85.60403763240663, 327.51410203292335, 339.9238825739942, -217.3938336123946, 80.63195135367053, -89.32083633853233, 32.19492584684396, -21.519530699055707, -3.6266113552724115, -73.04368468656011, 86.79421267883791, 28.9157151412623, 61.36551771993493, -20.29937758864763, -20.5145225649866, 1.7418865694839667, -22.377181673057002, 12.371971410300219, 34.95291732805864, 10.187903617561325, 15.16604348820858, 8.612060636243209, -1.1743635221400766, 7.0376682218726625, -4.093627003889395, 9.922048209550361, -15.554840299560915, -5.613674452998811, -0.2972665085945745, 4.368352481075529, -3.6043195792310403, 1.354200703685919, 2.8516893216669104, -4.255469010620061, 8.299974464104451, 1.2791418187815111, 1.2654639155740988, -2.171801897186288, 0.7563528622149089, 1.6309678283868045, 0.8461705305940708, 3.200150728577338, 4.514637663770485, 2.047832060332592, 0.988495732690156, 3.0209744065138135, -1.0787642655477623, -0.5848165573459294, 0.7450505682325215, 0.7138952097940852, -0.4513392507860554, 0.44000043161623736, 0.9076636698868725, -0.7553614212014921, -1.1367214236829248, 1.4883333004282742, -0.6534390261587824, -0.2020478861539523, 0.5979438493412772, 0.35044047212350127, 0.5920200016964907, -0.4545510567545348, 1.2436977886366634, 0.06188974879205844, 0.28770923066137755, 0.34025436763747585, 0.054350949740208376, 0.15963437295462057, -0.5109982693033068, 0.3735134387368202, 0.6870145153430531, 0.38216412404326583, -0.20553217795980494, -0.08297866327442271, -0.09481622405384194, -0.0074888306561717854, 0.442508262678758, 0.06098427500299941, -0.4139541096843904, 0.14832844029545988, -0.294554145147611, 0.015892796356977712, 0.1548609075275289, -0.005654655004061704, 0.07842930267586645, -0.20841896255037717, 0.07855635365402769, 0.01820150849557578, 0.012441639298426566, -0.05940224021880214, 0.12084591158474112, 0.026787833651969892, 0.019668535058581682, 0.05537380493890609, -0.03933624965050253, 0.009307974571203914, -0.023474896973407267, 0.020049719383548492, 0.003215210697313786, -0.04194589694978035, 0.04089452902605473, 0.02749361263995076, -0.07262298298187164, 0.015379054954234306, 0.0506532373375812, 0.01506994111025417, -0.02377975685210143, 0.009711782809699865, -0.04845640783987859, 0.03322037544939782, -0.008444174408285043, -0.002255075440015908, 0.022455666638478533, -0.005795103590370054, 0.02421124183525336, 0.01760123567103644, -0.016655303062377946, 0.018813816162650987, -39412.885784469465, -17317.731873982575, -13183.396377644192, -5475.171922755383, -7640.2715885291855, 2841.170516316997, 1820.0896820565792, 2886.5759005446357, 1237.541456338221, -269.43829092706494, 215.5525441580681, -313.0722415142416, -727.4290486619875, 497.90981470333134, -94.22864668508431, 714.7302585968692, 571.7568396483874, -76.63087770829736, -312.04462611140326, -303.61170219483665, -406.87623523972826, 175.01866296642802, 392.63767915112635, 498.87763652437104, 128.44626876984088, -271.50004137349015, -30.134156175578426, -72.13486345215631, 142.00091423913517, -299.68301325109763, -398.51907617944676, -231.57484957095193, 3.1852710303116822, -26.720414853163362, -95.71769145530465, 2.9925441425371435, -10.81846010370056, 102.61213778754497, 21.166149499305153, -39.367448430959904, -92.58776561061664, 97.13483078870604, -41.48313744657908, 16.095838190524706, 27.507184650689197, 23.87047217033583, 67.95895333139326, 38.187346882102446, 51.78589625439095, 20.62454550142173, 11.851244894797349, 14.762731105001752, 9.133462640877092, 3.355145414767275, -6.2788927883526355, 0.399705674697028, 18.568411092599547, -3.535893275382879, 6.3299565543368495, 0.3498754553544714, 19.594523424973346, 5.095219667788039, -23.51553499512255, 6.610654004374643, -14.689214558975582, 18.54530416814267, 7.3944354958587715, 6.6361900930769195, 15.143034887542486, 7.214030896527545, 9.068964849475272, 5.786662336060822, -5.778588980644294, 1.4271809353872138, 4.935102673202522, -7.883094698422429, 8.417674318814495, 1.2719359857346575, -0.028013882977145244, -5.431618316392148, 6.2948185185565055, 4.152899251109444, 3.588800199678839, -4.625046732623954, 1.0423751790867755, 2.2007467699495953, 3.1748114640251712, 5.94596031267289, 1.1825760483735333, -0.15435158545711536, 1.1604467260313704, 4.320506141745822, 3.349490504479892, 2.0648277907780006, 1.6804165294318096, -2.4401069681158836, -3.244792724582859, 8.313771714791063, 0.24438802637210644, -1.9313999376481608, -1.0503992231238852, -1.4158987254122504, -0.8716424589653816, -1.363253558538842, 2.170345476187105, 4.2027170028493375, 2.195862687778305, 1.5828531997042457, -1.24213534207545, -0.25983972419637524, 0.28283609082512307, -1.3444951406704613, 1.848699008552547, 0.9195901839059335, -0.46947337079778784, -0.7185792188539648, 1.5482758258377807, 0.2653061463552673, 0.16848496047959127, 0.6411629227555968, 0.9464742915141915, 0.46154753397252973, 0.16142518509601889, 0.0074366085449564245, -1.1419099071095042, 0.7066500015012975, -1.003042730752231, -0.797855399201187]",-5.297714285714285,-3.4170000000000003,-5.400000000000001,-3.83,1.25,CF,_,25.0,PEDOT:PSS,PDINO,10.42,10.41,0.868,17.85,67.2
"[-40379.550777858196, 56004.069127593044, -10651.726564434246, -16787.81031422943, -4899.992121591016, -824.7283886742232, 3213.3355032253107, -1470.288885595245, 254.4377968009814, -1413.1146630484025, -524.4083602292874, -562.997720813155, -39.53950048797216, -237.61809197268883, 180.52903723581315, -190.73776488072147, -330.80306712396464, 99.72719854979664, -38.288725474699014, -15.193302786029136, -8.532246059522224, 145.04616544768794, 14.962058909511939, 123.04398183642466, 62.852427505583, -16.118058857090944, -46.56859833906233, -0.5575523560657274, -6.36498680353148, 16.394816676055783, 87.85016416866046, 16.04209532118321, 6.728058072640266, 31.819933043206213, 7.247524520540111, -16.595924642037062, 22.429503825143726, -34.30752403737112, -22.117717401179593, -42.53762441373334, 28.137558748772225, 2.22131123168802, 10.678808593591533, -14.694404223731631, 5.672198985063375, -1.6746084012166627, 3.5448396296069937, 4.439322415982939, 2.361717827741181, -7.79091708674293, -7.799464018746011, -0.06700113902227045, 6.275440131612939, 1.6816512012129223, 7.516755854741788, -1.3196602414838896, -1.599423863335157, 0.8523744266797966, 6.5919953227931884, -1.9930726417356155, 2.4730446865395805, -4.86740547502367, -1.6841737660247347, 1.6586533064853555, -0.8074568835944604, -3.2367193878033773, -2.1849438483133383, 0.21206456314353517, 3.0809245279681186, -0.19938566599949326, -1.7618285128175284, -0.05980224728117811, 2.9080797958751314, -0.2649007688640488, -1.4904110395030248, 0.9599817863349642, -2.062231625754352, 0.18250954513997886, 1.0587154103407115, -1.8898659848741381, 0.0828903647949275, 1.32594414559665, 0.358456040618492, -0.08392299601673514, -0.7357168466038431, 0.5569749078821111, 0.46639264895316324, 0.8106144831234943, 0.0036309183357334796, 1.615344045763857, -0.8126052081822834, 0.008561986029853585, -0.4374767812936806, -0.3645528964956295, 0.3530253133670438, 0.01993774228438383, 0.21970565142439824, 0.05638899422120147, 0.33798152978198814, 0.10894087739224645, -0.2310380143835129, 0.5971144474169652, -0.0568340402989147, -0.14432609544563313, 0.09196812189175685, -0.12801448064831078, 0.08893783919220155, 0.08315346312763339, 0.2048785099106445, -0.21622713001348914, 0.12256202799790294, 0.10820379300091787, 0.1865751938394018, -0.1645796925672459, 0.09908524542788655, -0.09534185566811182, 0.05572017504187965, 0.08364897859544218, 0.04476089133255723, -0.03247571883968092, 0.01741547505732921, -0.03798876088742631, -0.039233448534753634, -0.00874733060879862, 0.018554743515469596, 0.022867216035734828, 0.052540313824602336, -0.04783066929916302, -11127.360669556712, 119691.71262425008, 42272.63091455247, 22986.636268311937, 21894.17869035602, -1128.9412572962406, 160.1255616924209, 2368.743148228724, -401.82427520957845, -8575.02000012205, -959.6792414172585, -2644.268729322937, 1682.5191569314788, 1659.0118835253384, 537.9868225017933, -2785.678927401887, -380.8106597024998, 3307.924151058982, 442.21905295989956, 4231.372229501081, -941.585567765511, 3116.7722748173637, 243.97885737346343, -554.4317748742949, 260.0619260426106, 123.93616614716495, -1424.9753146333273, 1646.4678374953628, 554.1973669451004, 129.1492871606258, 90.62650224662468, -175.53163453004694, 232.33922229783948, -117.83288649219412, 18.043823023508523, 358.4970901976853, 17.376988318272993, -86.21380872912243, -104.88114878400502, -320.81567206081485, 93.5806012671153, -256.5495660898318, -393.3182844443957, 62.63900967868602, -234.57827190787253, 457.7802293835356, -19.695713302147098, 71.72940273147007, -51.2000424725308, -35.980490091444295, 241.20055014141457, 87.3570084458102, 72.40851645135852, -20.372051004120628, -86.95885364983323, 231.1412683497148, -11.94756505541838, 45.514458172347375, -2.276983722347552, -47.999246775561915, -35.80668933071733, -26.76305972281184, 26.823855996549824, 1.2351830498942178, 28.533000280851198, 31.08522758044474, -59.48585431928535, 1.1937054555979056, 35.46741143992162, -44.24522748891741, 43.758079146457945, 4.54771463509965, -15.261154576180687, 14.75122318895928, -1.0316853107636401, -30.403245199331067, 7.080564466377796, -21.676533254482877, 45.458661902397736, 11.610414017896982, -2.4210047090065, 0.1314220130204049, 54.73186169274063, 11.680229203761812, -5.155315787080863, -9.61161339224206, 15.679722346425786, -2.380170276994832, -14.302171379380654, -2.8098058670673716, 3.640819705175627, -1.8341158566686389, -5.6194849452944595, -6.026514731703209, 13.471853171734377, 15.67917659738118, -0.7470118065019875, 15.834190284819046, 2.6702144216720463, 2.194917488650475, 4.6211747993428265, 6.364185211275563, -2.788384394392818, -1.7254817071292812, -3.7357678001658563, -0.5258478049881177, -2.48922967341975, 4.714372508105445, -3.28463636172161, -2.7992179663319696, 3.5074379781221605, 1.3175891182899022, 2.865819979592601, -0.13273126142271963, -1.25156090542456, -0.4836400852310483, -1.1985934309295914, -5.333508458928549, -2.8061884993791146, -2.172767018256806, 0.6259962297361179, -4.04527732641408, -0.7486605231438386, -0.8801441162764689, -1.125589132380262, -0.07313094201918435, -3.6302815476749544, -2.702590697643924]",-5.353333333333333,-3.4318181818181825,-5.66,-3.81,1.0,CF,_,120.0,PEDOT:PSS,PNDIT-F3N,13.18,13.17,0.85,21.3,72.76
"[-40379.550777858196, 56004.069127593044, -10651.726564434246, -16787.81031422943, -4899.992121591016, -824.7283886742232, 3213.3355032253107, -1470.288885595245, 254.4377968009814, -1413.1146630484025, -524.4083602292874, -562.997720813155, -39.53950048797216, -237.61809197268883, 180.52903723581315, -190.73776488072147, -330.80306712396464, 99.72719854979664, -38.288725474699014, -15.193302786029136, -8.532246059522224, 145.04616544768794, 14.962058909511939, 123.04398183642466, 62.852427505583, -16.118058857090944, -46.56859833906233, -0.5575523560657274, -6.36498680353148, 16.394816676055783, 87.85016416866046, 16.04209532118321, 6.728058072640266, 31.819933043206213, 7.247524520540111, -16.595924642037062, 22.429503825143726, -34.30752403737112, -22.117717401179593, -42.53762441373334, 28.137558748772225, 2.22131123168802, 10.678808593591533, -14.694404223731631, 5.672198985063375, -1.6746084012166627, 3.5448396296069937, 4.439322415982939, 2.361717827741181, -7.79091708674293, -7.799464018746011, -0.06700113902227045, 6.275440131612939, 1.6816512012129223, 7.516755854741788, -1.3196602414838896, -1.599423863335157, 0.8523744266797966, 6.5919953227931884, -1.9930726417356155, 2.4730446865395805, -4.86740547502367, -1.6841737660247347, 1.6586533064853555, -0.8074568835944604, -3.2367193878033773, -2.1849438483133383, 0.21206456314353517, 3.0809245279681186, -0.19938566599949326, -1.7618285128175284, -0.05980224728117811, 2.9080797958751314, -0.2649007688640488, -1.4904110395030248, 0.9599817863349642, -2.062231625754352, 0.18250954513997886, 1.0587154103407115, -1.8898659848741381, 0.0828903647949275, 1.32594414559665, 0.358456040618492, -0.08392299601673514, -0.7357168466038431, 0.5569749078821111, 0.46639264895316324, 0.8106144831234943, 0.0036309183357334796, 1.615344045763857, -0.8126052081822834, 0.008561986029853585, -0.4374767812936806, -0.3645528964956295, 0.3530253133670438, 0.01993774228438383, 0.21970565142439824, 0.05638899422120147, 0.33798152978198814, 0.10894087739224645, -0.2310380143835129, 0.5971144474169652, -0.0568340402989147, -0.14432609544563313, 0.09196812189175685, -0.12801448064831078, 0.08893783919220155, 0.08315346312763339, 0.2048785099106445, -0.21622713001348914, 0.12256202799790294, 0.10820379300091787, 0.1865751938394018, -0.1645796925672459, 0.09908524542788655, -0.09534185566811182, 0.05572017504187965, 0.08364897859544218, 0.04476089133255723, -0.03247571883968092, 0.01741547505732921, -0.03798876088742631, -0.039233448534753634, -0.00874733060879862, 0.018554743515469596, 0.022867216035734828, 0.052540313824602336, -0.04783066929916302, 46480.75551644421, 251246.24570279053, 131584.10350068897, 23411.09443861812, 3142.3865219042655, 5512.6562958658105, -5520.466174525665, 181.59224004937596, 5918.035875998409, -9048.080083419929, -3445.963592837721, 772.6135941119082, -4254.007803400366, 3305.9512288326664, 1774.4394039922972, 385.97935400863037, 1302.7224186759697, 1651.3765105408943, -870.5684408272992, 1283.975378452421, 302.5817563433445, -1041.8455145972546, 324.08539822282484, 460.17345133994786, 425.84183461677424, -296.8157248418016, -515.009127494075, -320.1707919562182, -565.2732033003707, -141.26855854252386, -126.78582988033052, 261.10093586228226, -257.45326022625545, -321.5254105049886, 50.39166256572253, 42.475218957075, 145.56054429340065, 8.555099518727047, -105.28848356232773, 120.6767805031063, 116.47039985717356, -117.33652050798838, -42.017972916605174, -117.13746361284808, -80.98624893960692, -178.393785347095, 12.566475002570854, -45.662952782566265, 51.52451626808244, -22.420559819649455, -25.85562997789072, -37.49176579201077, -11.309129207102359, 8.438848814457486, -85.53911223909705, -0.6700142623806755, -16.428573262057938, 14.069151522286859, 55.26208820694387, 1.5064046139250422, -7.325229670634961, -10.093934009506732, -19.023922836792636, -5.749267345704865, 28.589075656537233, -2.394518192874984, 13.548919679329153, 10.349514430850782, -6.090184503701895, 12.333309537940501, -13.122740721840913, -10.571056980428818, -11.80781814855439, -6.35031918209765, 10.63586647332254, -7.7483798819222045, -4.261387202677334, 15.005805476159733, -2.4953471257444733, -11.602556917966751, -10.118453852404793, 8.26116780198614, -7.143014132851203, -10.698937523074775, 5.461194337453094, -0.3860042350519848, -1.0140440823008134, 0.7353128022517552, -0.03572652050922542, 0.5780245927339642, -4.730092873037961, 10.881201778736198, 5.916587843130557, -2.24007210496508, 1.4006507272605546, -0.38168342464749117, 0.2886303356159843, -3.541781313049194, -9.82315681193913, 0.1185458481960211, 0.9998764797404789, -7.131703674712753, 0.33045141284982193, 0.7659018753664597, -1.7172161360007507, -0.4608112184410702, 1.4549053045274114, 1.1531728980102631, -0.6241792528692074, 1.2847808836380423, -1.2159044722319976, -2.3804381683266698, 0.45185496293710514, -0.45621574764181183, 3.3246667162738976, 1.6001894190524126, 1.4728208551979165, -0.8621076804766261, 0.24257447080824335, -0.7030014402706897, -2.0648834340488946, 0.49943382925101876, -2.120299705652193, -0.5005322107337893, 1.1082621146545195, 0.13233115378816507, -0.06481332204103296, 0.3443711266087739]",-5.353333333333333,-3.4318181818181825,-5.550000000000001,-3.78,1.0,CF,_,120.0,PEDOT:PSS,PNDIT-F3N,13.04,12.91,0.93,20.24,68.61