DA_mordred_pca,HOMO_D_eV,LUMO_D_eV,HOMO_A_eV,LUMO_A_eV,D_A_ratio_m_m,solvent,solvent_additive,annealing_temperature,hole_contact_layer,electron_contact_layer,PCE_percent,calc_PCE_percent,Voc_V,Jsc_mA_cm_pow_neg2,FF_percent
"[-96218.45766618998, 38190.55941397739, 9341.19863978244, -298.0321681723599, 3837.039845288656, -633.0815150821412, -1318.980794355729, 952.285808193773, 528.6042339012306, -265.75996339509254, 85.60403763240663, 327.51410203292335, 339.9238825739942, -217.3938336123946, 80.63195135367053, -89.32083633853233, 32.19492584684396, -21.519530699055707, -3.6266113552724115, -73.04368468656011, 86.79421267883791, 28.9157151412623, 61.36551771993493, -20.29937758864763, -20.5145225649866, 1.7418865694839667, -22.377181673057002, 12.371971410300219, 34.95291732805864, 10.187903617561325, 15.16604348820858, 8.612060636243209, -1.1743635221400766, 7.0376682218726625, -4.093627003889395, 9.922048209550361, -15.554840299560915, -5.613674452998811, -0.2972665085945745, 4.368352481075529, -3.6043195792310403, 1.354200703685919, 2.8516893216669104, -4.255469010620061, 8.299974464104451, 1.2791418187815111, 1.2654639155740988, -2.171801897186288, 0.7563528622149089, 1.6309678283868045, 0.8461705305940708, 3.200150728577338, 4.514637663770485, 2.047832060332592, 0.988495732690156, 3.0209744065138135, -1.0787642655477623, -0.5848165573459294, 0.7450505682325215, 0.7138952097940852, -0.4513392507860554, 0.44000043161623736, 0.9076636698868725, -0.7553614212014921, -1.1367214236829248, 1.4883333004282742, -0.6534390261587824, -0.2020478861539523, 0.5979438493412772, 0.35044047212350127, 0.5920200016964907, -0.4545510567545348, 1.2436977886366634, 0.06188974879205844, 0.28770923066137755, 0.34025436763747585, 0.054350949740208376, 0.15963437295462057, -0.5109982693033068, 0.3735134387368202, 0.6870145153430531, 0.38216412404326583, -0.20553217795980494, -0.08297866327442271, -0.09481622405384194, -0.0074888306561717854, 0.442508262678758, 0.06098427500299941, -0.4139541096843904, 0.14832844029545988, -0.294554145147611, 0.015892796356977712, 0.1548609075275289, -0.005654655004061704, 0.07842930267586645, -0.20841896255037717, 0.07855635365402769, 0.01820150849557578, 0.012441639298426566, -0.05940224021880214, 0.12084591158474112, 0.026787833651969892, 0.019668535058581682, 0.05537380493890609, -0.03933624965050253, 0.009307974571203914, -0.023474896973407267, 0.020049719383548492, 0.003215210697313786, -0.04194589694978035, 0.04089452902605473, 0.02749361263995076, -0.07262298298187164, 0.015379054954234306, 0.0506532373375812, 0.01506994111025417, -0.02377975685210143, 0.009711782809699865, -0.04845640783987859, 0.03322037544939782, -0.008444174408285043, -0.002255075440015908, 0.022455666638478533, -0.005795103590370054, 0.02421124183525336, 0.01760123567103644, -0.016655303062377946, 0.018813816162650987, -40141.28622980386, 22198.364724375428, -2478.146774428885, 24942.22643106505, 1682.7190538350328, -671.9950103088106, -5293.262409804413, 772.1081558521887, 752.6412485976263, 25.721379823563694, 4520.600741544252, 1268.126975254695, -1412.8803176795873, -764.1474923449753, 1258.3385725916187, 1469.7042372777487, -120.64365497867553, -791.8060945835012, -114.39567208902628, -239.24412272548182, -284.5762301636467, -858.9754090462698, 805.0586575747594, 309.98748022055497, -229.3628670257453, -2.619310315170111, 278.8296838524342, -586.239863210692, -110.15797376559783, -86.43055239718255, 460.42088505675196, -209.23790915720434, 438.4379102736266, 433.65010648227457, 68.83920123543803, 41.82732783201819, 75.96213090604824, -178.83260468962584, 62.8857235572451, -135.5767996060909, 43.80496537092181, -24.580980790874605, -106.29464844798989, -141.88921712272352, -127.30141974733934, -14.41270928697718, 20.174306486554453, 6.459844271516701, 45.589378842856846, -29.60434882050526, 21.749319778374435, 27.940431542838475, -53.24013506517369, 3.2032881457320954, 21.198920702845527, 1.0139647146013573, -18.235101062755405, 24.447166344849514, -15.24438762500418, -8.520845633786848, 16.219623336338394, -10.077890630767708, 16.985701023044435, 20.99303519903128, 3.4693140431524654, -2.8172988400893697, 18.453271735096614, -11.421305369376189, -3.2742126126130273, -26.868607183326326, 22.63083447356177, -11.286017472009917, -7.282449082396312, -10.691852412665295, 4.267559856534298, 1.9165099650587507, 5.347135061616833, -8.20801666584648, 3.597067172866012, 12.468485158814865, -9.689035117948848, 0.2615495472594809, -1.362041770243733, -1.1553142198435253, 3.45164539734283, 0.2857898581169511, 2.536801089837226, -0.10478528895328054, -1.6358468042017016, -2.9020618829165876, 1.0245225519934387, -5.148959261497112, 3.969974185621105, 0.051307117460204665, -0.26102330372994587, -3.5617206281042098, -0.766659169499663, -3.255009906916665, -1.6698794035973874, 0.4569242965676601, 3.624839707143753, 3.8730115052499574, 0.28497169965529245, -3.8836363690390012, 3.0197757423208937, -1.5874150638708286, 1.0521756139100136, 0.24363231901443616, -1.9657801893483047, 0.8460207052388728, 1.2856672572952057, 2.113221552979269, 1.5602443126933032, 4.045362527606075, -1.0552615093568027, -2.450199592473542, -1.092065692221139, 1.0864669926224493, 1.2702852934756699, 0.5963336965646822, -0.9460645848965283, -0.18107705506738686, 0.8451479299024669, 3.0449397982199202, 1.7846189031035737, -0.8606481936127146, -2.6514758458917527, 1.165430079412939]",-5.297714285714285,-3.4170000000000003,-5.54,-3.9,1.0,CF,_,150.0,PEDOT:PSS,PDINO,10.68,10.67,0.843,18.16,69.7
"[-105631.73783275932, -74572.73247403272, 4329.753734020427, -2341.4243576849567, -5555.485216633641, -172.87819728700106, -798.6979620852667, 856.8010146047068, -1780.8026309386028, 649.5717848685752, 65.62447326392157, 388.30062073400836, -353.1258883999071, -137.697950651705, 31.52142203119479, -106.39355730444561, 81.98057692092414, -63.14138686604906, 66.8688432765725, -31.850017336689234, -14.562814664564094, -114.9941249091529, 19.27422754978045, 6.86920436049806, -13.362968611123335, -88.88424698589336, -9.680549433746734, -6.256532059762719, -19.287322586292646, 30.85187752382363, -0.060728621664203786, -1.7204165771485123, 18.096287928493183, -5.394264557244732, 40.036620565000476, -33.18107886987201, 2.1644049971745574, -3.5496157331860445, 9.702406188567533, -7.574832588501394, 9.796433451870143, 2.157829321761511, -3.1218789726135014, 6.6756247366353705, -7.1588684345745435, -6.697268175137552, -1.4052090508045652, -1.9646060063565116, -5.4204105421624575, 3.32941670679557, -3.8499636318233144, -4.615352531498566, -0.07975953344401887, 3.391194367932755, -4.106358123047258, 1.501503218822819, 0.9563824343184066, -2.6973013366915453, 0.8798263076499495, -1.2664639901547048, 1.2677471291641744, 0.13775840341868673, -2.0083004655011223, 2.233635675897844, -1.9092080674585787, 1.3281780039048954, 1.7708225501106938, 0.11723884380987926, -0.7217945654510771, 0.020674104910288094, 0.6321921645490995, -0.12750860712933587, -0.7324806057772388, 0.387690081710673, 0.5704773577055064, -0.5561048571084157, 0.13303415142318897, -0.39533728660630274, -0.19314666767595423, -0.17136554860633169, -0.3105600644218782, 0.09227497024608411, 0.3640581811437116, 0.12456153887661969, -0.4900314009409783, -0.2105542507325282, -0.11287961723428896, -0.4896110545300445, -0.2576249538547408, 0.020036158749878297, 0.19004174677945684, 0.43512588848888356, -0.15984926722186188, -0.03699898168409543, -0.16184812575650298, -0.018640178199959223, -0.06970965394751483, 0.02644608400954951, 0.4184249457529603, 0.06710147780425979, -0.1455202420919477, -0.027435290436191195, 0.055771972451445606, -0.09475802435058256, 0.24207868559446766, -0.05282116924259128, -0.1882724966860181, -0.05346045629421603, -0.10831494984240475, -0.0036262226167114164, -0.026380022030597416, 0.020118181288705017, 0.03512820925391846, 0.029024371883522804, -0.050134402663047695, 0.01941571781524054, 0.00820689833365762, 0.059280726425585684, -0.07718365209846922, -0.05673269250273272, 0.03097365628437565, 0.0007247489018915587, 0.008388415516517256, 0.019782146741892603, 0.003491413958400358, 0.005668303566913835, 0.008251200563019978, 0.015433351818131769, -40141.28622980386, 22198.364724375428, -2478.146774428885, 24942.22643106505, 1682.7190538350328, -671.9950103088106, -5293.262409804413, 772.1081558521887, 752.6412485976263, 25.721379823563694, 4520.600741544252, 1268.126975254695, -1412.8803176795873, -764.1474923449753, 1258.3385725916187, 1469.7042372777487, -120.64365497867553, -791.8060945835012, -114.39567208902628, -239.24412272548182, -284.5762301636467, -858.9754090462698, 805.0586575747594, 309.98748022055497, -229.3628670257453, -2.619310315170111, 278.8296838524342, -586.239863210692, -110.15797376559783, -86.43055239718255, 460.42088505675196, -209.23790915720434, 438.4379102736266, 433.65010648227457, 68.83920123543803, 41.82732783201819, 75.96213090604824, -178.83260468962584, 62.8857235572451, -135.5767996060909, 43.80496537092181, -24.580980790874605, -106.29464844798989, -141.88921712272352, -127.30141974733934, -14.41270928697718, 20.174306486554453, 6.459844271516701, 45.589378842856846, -29.60434882050526, 21.749319778374435, 27.940431542838475, -53.24013506517369, 3.2032881457320954, 21.198920702845527, 1.0139647146013573, -18.235101062755405, 24.447166344849514, -15.24438762500418, -8.520845633786848, 16.219623336338394, -10.077890630767708, 16.985701023044435, 20.99303519903128, 3.4693140431524654, -2.8172988400893697, 18.453271735096614, -11.421305369376189, -3.2742126126130273, -26.868607183326326, 22.63083447356177, -11.286017472009917, -7.282449082396312, -10.691852412665295, 4.267559856534298, 1.9165099650587507, 5.347135061616833, -8.20801666584648, 3.597067172866012, 12.468485158814865, -9.689035117948848, 0.2615495472594809, -1.362041770243733, -1.1553142198435253, 3.45164539734283, 0.2857898581169511, 2.536801089837226, -0.10478528895328054, -1.6358468042017016, -2.9020618829165876, 1.0245225519934387, -5.148959261497112, 3.969974185621105, 0.051307117460204665, -0.26102330372994587, -3.5617206281042098, -0.766659169499663, -3.255009906916665, -1.6698794035973874, 0.4569242965676601, 3.624839707143753, 3.8730115052499574, 0.28497169965529245, -3.8836363690390012, 3.0197757423208937, -1.5874150638708286, 1.0521756139100136, 0.24363231901443616, -1.9657801893483047, 0.8460207052388728, 1.2856672572952057, 2.113221552979269, 1.5602443126933032, 4.045362527606075, -1.0552615093568027, -2.450199592473542, -1.092065692221139, 1.0864669926224493, 1.2702852934756699, 0.5963336965646822, -0.9460645848965283, -0.18107705506738686, 0.8451479299024669, 3.0449397982199202, 1.7846189031035737, -0.8606481936127146, -2.6514758458917527, 1.165430079412939]",-5.204782608695651,-3.5391891891891896,-5.54,-3.9,1.0,CF,CN,25.0,PEDOT:PSS,PDINO,8.12,8.11,0.796,16.52,61.7
"[-91850.1013944251, -31.94532944595926, -13640.129141491467, 5099.048943614727, 7326.240889669503, 7684.43407108446, 1997.5494770357122, -703.3152267823559, -259.7450865929389, 436.92345434869816, 490.3794333956324, 774.5753002521705, -2022.4679685424287, -1987.4701536078055, 108.76625203341355, 104.60182730990317, -80.8059801199831, 518.8170348412508, 513.1853716948877, 15.26626321363915, 43.50341270921257, 48.27983655028392, -100.29142569674494, 104.9057912250179, 170.11567291119, -24.50881973822078, -109.0522832507805, -274.67003359230495, -26.845011636912957, -64.75688205459811, -109.96502227843183, 117.72488586437522, -74.05234933802795, -19.742306629134646, 8.210886499264518, 58.15026930634001, -2.0910308578646912, 1.6565080023191499, -42.627578711504825, -14.392497199742639, -40.03801206359397, -2.7404110728584747, 5.1152424033258015, 10.93175834662733, 7.17062172142435, -7.336682401094352, 12.335195137325176, 1.743859757755739, -11.045090774637238, -10.383896287752744, -5.08769084339689, -1.678110450983886, 2.874319989313248, 8.705711012017357, 3.459574045624098, 2.1486389571342643, 9.187302519778862, -2.839489944206351, -2.925919531500101, -0.7335914346383561, 2.651432306082293, -5.925503426319116, 3.6301310383623395, -2.688416150576783, -0.39163237962848996, 1.5394059466154877, 2.074358943660581, 2.5781307902480597, -1.110172042208525, 2.0531010681186173, -2.0110712717998815, -0.0013305089881772147, -1.8456419639238901, 1.054484185975348, -1.7743173691334029, 0.3866410347867113, 0.030670132991629018, -0.9639888106917067, -0.8888866294011472, -2.742182332770623, 0.10855259722772992, -0.018251501121850477, 0.7404327978632788, 0.6317846317399689, -0.9425030761764255, 0.20914888242955687, 0.027004723583202883, -0.18326034248701006, -0.007922551392209709, 0.29072379791069425, 0.023583823241565938, 0.14167009797399643, 0.09081391715623832, 0.26569816221827436, -0.19113427062095623, -0.15117296545027425, 0.4906741400137331, -0.11675473747599963, 0.15657728436579532, 0.023369801669616663, 0.22976643765362015, -0.13851454714771427, 0.452387254805809, 0.39827537908958455, -0.08806860875073019, -0.20101392348631597, -0.11813223291226427, 0.3178059037360166, 0.2183440404572612, -0.21518659747810887, 0.05295137879517142, 0.24798228239579956, 0.10020542758738127, 0.28166189335245306, -0.18857723602523713, 0.0641165806306252, -0.24958460306900254, -0.06013028960270761, -0.10211807341153367, 0.10979007872791535, -0.06399760348199623, 0.08022730449348625, -0.16750723788688926, -0.05023146720217753, 0.04339181601633779, -0.03946373517263346, -0.04765661365284746, 0.015093753317343833, -41084.08350985111, -13330.417329836237, -5249.902940815858, -8885.241490832906, -8886.293472892203, 1281.0039104125874, 847.6487836012213, 1370.8100025071813, 3829.221819014972, 688.9633418353848, -2720.3716150099826, -923.4489261565675, -948.6021470261395, 1238.1145236627435, -458.7797206613423, -957.1055945453504, -561.4700716943602, -277.6667867303057, -673.9623791764429, -225.9964888038626, -1170.4756358201155, -271.26564595335964, -226.94078792754283, -194.30915599699588, 345.5328128383103, 18.732176992535237, 724.195815756842, -135.1237772333145, -289.1571305249893, 153.53911612033806, 111.7411739634486, 162.8179709741945, 271.149229723734, -141.52055931502576, -74.89123430655475, 100.7272817031293, -87.47472849698572, 193.4422101590331, -102.63178815329704, 194.29809572906538, 55.685336090533916, 56.51236234011775, -78.58884121304278, 72.71877245080405, 42.219762159824064, 86.10908397693092, 50.27917387291423, 16.257777123907125, -10.067609445683031, 51.15944770544952, 6.755501999717202, 12.434609283365287, 30.207137607781302, 10.38683837357547, 35.17491288917134, 32.848684135652604, 1.4875465746932655, -0.6572690835173809, -14.18863381454926, -15.748473697513168, 6.659130727036621, -7.397832662583485, 7.238594117575766, -13.50475482167381, -37.26856213510603, 16.859147874613214, -4.320936955845358, -0.5474302634326911, -0.7204695297345904, -7.850469428924939, 19.027584023630432, 4.405456413502178, -16.032492741687843, -7.549484748171596, -10.883498386685165, 5.08937915155415, -17.81183880412672, 2.566395970324164, 2.9327234569831866, -3.6337629623993437, -9.809963457095595, -4.5357480511254185, 0.7062427877755244, 10.220362953459167, 4.941273322101094, -1.4484274506055952, 3.730398967321298, -5.643071774381022, -0.6341218601565832, 7.54661891778461, 1.2573943760623383, -9.206599872651216, 1.876176060732674, -9.792877007418609, 1.608607254256048, -3.2456585941978333, 4.798283454754834, 0.0411588682872317, -2.042059040308877, -5.032917925076623, -2.6229106873454135, 1.2223041293493182, -4.001814982615834, 4.246195589711402, 3.446796208550679, 0.17158572042283282, 1.8587962270796459, -2.4344852800085803, 0.8273771112013222, -8.819729286749988, 2.784944222386482, 2.19773058072117, -0.7497391208334445, 1.750370139699088, 5.570506312770375, 3.7567126236543062, -2.8882508774695306, -0.5346710581235232, 2.1614346979296535, 2.015798390195224, -1.517725742258952, 1.532607937347216, 1.6227820681792098, -3.0918088102455314, -2.155218202843007, -3.060514427243633, 0.767678608753267, 3.6746668495409045]",-5.43,-3.3200000000000003,-5.69,-3.86,0.667,CF,_,25.0,MoOx,ZnO,7.45,7.45,0.775,15.7,61.2