DA_mordred_pca,HOMO_D_eV,LUMO_D_eV,HOMO_A_eV,LUMO_A_eV,D_A_ratio_m_m,solvent,solvent_additive,annealing_temperature,hole_contact_layer,electron_contact_layer,PCE_percent,calc_PCE_percent,Voc_V,Jsc_mA_cm_pow_neg2,FF_percent
"[-104962.7663977064, -80994.69477143629, 198.02697460794434, -3350.493168720447, -3047.419232833515, -2038.260791053891, -2262.1054222253033, 2230.780940619858, -225.25559773802843, -1042.64624858164, 224.0689074375423, -959.6939439988263, 175.48031114982254, -195.33645878780453, -500.6779488650926, -331.4233845357082, 4.625573062107605, -459.4043751051129, 401.5767690150666, 558.7024219874041, -788.8502566742062, 524.7984664034489, 23.631097807601122, 381.3487534321726, -18.506733095352047, 135.9782523139894, -356.87504690706896, 45.644341024777304, 193.08911058014502, -150.90674973839242, -191.8430266714472, 34.32298515233564, -79.11863644935588, -107.24486410279198, -330.29393596006577, -64.31135697839011, 69.2797674040775, 196.41127644037033, 31.892733764730252, -22.686158759033148, -144.97292990624274, -64.61420729840617, -33.562155253846015, 45.53262897563212, -6.1405458568671065, 5.0767992461629206, -9.863157068478642, -18.117152238407783, 19.56207692508572, -19.234086159352017, 40.218300580329654, 28.831848085144856, -36.8219022190868, -7.53169378920461, 22.849886145314947, -10.979831708733364, -12.562046245055893, -3.4530911396480235, -42.67479278464194, -8.310099021302676, 21.738110102859878, -24.880956652528567, 4.0665733953828465, 16.44702116844084, -8.3299050532464, -9.69125658352096, -15.241143963820306, -4.10550185245679, 3.510594734622856, 3.2072406631825707, 9.737442684773349, 3.913912038026801, 9.511310441551753, 2.6750294751153803, -0.14653350039591118, 0.514686875171904, 5.867212070395411, 1.4341450194165581, 8.93346234937869, -2.8383766935872075, 2.008131139686128, -2.099235117388776, 6.459929123469713, 2.587877513202912, 3.2064644052568667, -0.8845439748090484, -0.11101443023289459, -1.7454360657063575, 1.2347659683540293, -0.737653151831708, -3.5739212807789613, -1.8300457671489454, -0.9848976996066057, -1.4119852181342534, -0.41978445868191017, -3.1306163340944195, -0.6926424295134219, 3.1247331969001095, 0.8963319607549565, 0.3619557144610548, -1.9255737871490837, -1.4357615230020588, -1.085611323741876, 0.5629678529845918, -2.0409099144822633, -0.5379332148731422, 0.13446037910258468, -0.42635308253467663, 0.16155476691467285, -0.34022681627464735, 0.25979518569048565, -0.4439933168161705, -0.3634613525332222, -0.3136182081940717, -0.23569698790332438, -0.016376823629475012, -0.41886613329012334, 0.252121378020739, 0.006651755235882462, -0.20628209772564254, 0.2807594671246392, 0.0037581344550687845, 0.13402377830586154, 0.11634493723326145, -0.09080879199103009, -0.07781566607297918, 0.2779371665800312, -0.20734135903973083, -33884.112693773684, -4325.184359052594, -14340.26905115353, 2007.251073958894, -3416.2048725689638, 1222.8013796982232, -315.8891404460362, -1209.0003422391364, -479.157471390153, -846.8417237206303, -623.4621954709284, 49.11871387883875, -52.80984495182999, 108.73480740674395, 176.87033808776283, -1014.8875048730074, -107.49151276022981, 82.05320392374176, -67.69506540365973, -246.72360824145727, 242.88467125290478, -282.64798581024866, -295.04426385405276, -259.9606678804771, 105.64064058300121, 3.7224163553194316, 50.756932727510446, 214.61038724942264, -45.85759770052486, 1.5543167638779032, -49.486312307058384, -26.107206673394472, -18.291024258009852, -50.03069245598829, -8.872424036426331, 28.672660062880027, -50.01728587052701, -37.268468960789036, 58.603415775361235, 13.279656222096957, -66.24592258025966, -38.93772240900555, -31.719181915114543, -94.58093926873183, -6.766471695179641, -3.363622896131081, -31.201453692809032, -4.95911600091976, 111.59390960085807, 29.289215649385348, -3.31853542011776, -64.1157617508615, -72.61222089521124, -52.100798063148055, 28.04630084350424, -38.28027070307531, -8.982149731281794, -33.85298643322331, 31.416567076350884, 2.9048365057967267, -49.388916130287896, -10.31052881673747, -24.075700857989148, -5.114430988863174, 26.89877491017146, -15.216585432467935, -14.285684496238849, -16.437818160152297, 9.680053573635425, -2.6837940530605273, -8.486485843671979, -1.059633710630719, 2.435106984506704, -1.0327311915276884, -4.356144572029855, 2.75231636664817, 0.15375009839298537, 5.796968252661754, -2.7233007469611534, 7.672497114267404, 8.215519435206215, -6.670095375169689, -1.3089257338124924, 5.315751880652737, -0.20631711906609418, -7.0341197808797205, 7.1430002308670435, -0.25811693944985414, 2.2574696034252972, 1.1718343520937187, -8.048370179534349, 5.953223044968458, -6.400048511224846, -3.3637161941136586, 0.6234940397763604, -2.6676819652986263, -1.680766698028041, -0.28911779624467737, 0.2552770579928264, -1.1083569224325167, -3.5156734347527214, 2.3370026364321754, -1.564871613839314, -0.954843102776151, 2.159817929850477, 2.905717891643671, 3.0581193847981702, -2.690706710589622, 1.5120610775386814, -1.292925514859295, 0.4718949395634997, 1.9729082708474146, 0.00012693829488341635, -2.2712444582919264, 2.0234400983528857, 1.9317211972038715, 0.9687122195119109, 2.4566556667747794, -1.7054196228616432, -0.6551155116260472, -0.28086548727711946, -2.895312963713458, 0.49361028584531175, -0.6887634115949808, 1.5860997323096349, -1.2741094632294683, -0.5282692616739819, -1.6386938885447742]",-5.6,-3.75,-5.65,-4.09,1.0,CF:n-hexane (9:1),_,150.0,PEDOT:PSS,MoOx,8.8,8.75,0.94,14.1,66.0
"[-104962.7663977064, -80994.69477143629, 198.02697460794434, -3350.493168720447, -3047.419232833515, -2038.260791053891, -2262.1054222253033, 2230.780940619858, -225.25559773802843, -1042.64624858164, 224.0689074375423, -959.6939439988263, 175.48031114982254, -195.33645878780453, -500.6779488650926, -331.4233845357082, 4.625573062107605, -459.4043751051129, 401.5767690150666, 558.7024219874041, -788.8502566742062, 524.7984664034489, 23.631097807601122, 381.3487534321726, -18.506733095352047, 135.9782523139894, -356.87504690706896, 45.644341024777304, 193.08911058014502, -150.90674973839242, -191.8430266714472, 34.32298515233564, -79.11863644935588, -107.24486410279198, -330.29393596006577, -64.31135697839011, 69.2797674040775, 196.41127644037033, 31.892733764730252, -22.686158759033148, -144.97292990624274, -64.61420729840617, -33.562155253846015, 45.53262897563212, -6.1405458568671065, 5.0767992461629206, -9.863157068478642, -18.117152238407783, 19.56207692508572, -19.234086159352017, 40.218300580329654, 28.831848085144856, -36.8219022190868, -7.53169378920461, 22.849886145314947, -10.979831708733364, -12.562046245055893, -3.4530911396480235, -42.67479278464194, -8.310099021302676, 21.738110102859878, -24.880956652528567, 4.0665733953828465, 16.44702116844084, -8.3299050532464, -9.69125658352096, -15.241143963820306, -4.10550185245679, 3.510594734622856, 3.2072406631825707, 9.737442684773349, 3.913912038026801, 9.511310441551753, 2.6750294751153803, -0.14653350039591118, 0.514686875171904, 5.867212070395411, 1.4341450194165581, 8.93346234937869, -2.8383766935872075, 2.008131139686128, -2.099235117388776, 6.459929123469713, 2.587877513202912, 3.2064644052568667, -0.8845439748090484, -0.11101443023289459, -1.7454360657063575, 1.2347659683540293, -0.737653151831708, -3.5739212807789613, -1.8300457671489454, -0.9848976996066057, -1.4119852181342534, -0.41978445868191017, -3.1306163340944195, -0.6926424295134219, 3.1247331969001095, 0.8963319607549565, 0.3619557144610548, -1.9255737871490837, -1.4357615230020588, -1.085611323741876, 0.5629678529845918, -2.0409099144822633, -0.5379332148731422, 0.13446037910258468, -0.42635308253467663, 0.16155476691467285, -0.34022681627464735, 0.25979518569048565, -0.4439933168161705, -0.3634613525332222, -0.3136182081940717, -0.23569698790332438, -0.016376823629475012, -0.41886613329012334, 0.252121378020739, 0.006651755235882462, -0.20628209772564254, 0.2807594671246392, 0.0037581344550687845, 0.13402377830586154, 0.11634493723326145, -0.09080879199103009, -0.07781566607297918, 0.2779371665800312, -0.20734135903973083, -33600.37630893208, -1789.8522534411254, -17216.938662346478, 3758.492110956423, -1672.6533439946247, 1838.8025341833359, 908.151422699399, -2472.9516864683, 759.7435178818666, -1117.4148023461285, -852.6839766339374, 730.2419967599719, 184.8339945918812, 522.4842062189689, 331.87183750250466, -1516.8329311674356, 300.85141497180445, 263.25271201266037, 223.9292476248607, -446.62313625630077, 413.5116371445773, -1.7886446374337908, -113.29130099770737, -550.2099928523894, 66.63039847141138, 85.22889991420598, -169.08461584774713, 361.18940197424325, -2.9834185535853095, 40.15164414404647, 121.05430280170972, 262.3417389745896, -64.18870362346675, -103.39234748202152, -104.19152899817624, -121.22336883429946, -164.29434775050476, -41.81349107445962, 369.4205997914376, -10.330851492954942, -122.61840771414782, 12.391601255315056, -32.28527962483848, -169.22651595721942, -30.739422640058685, -14.391051682507195, 44.93013166268863, 21.98905699838012, 28.116214780888818, -124.28743270693805, -18.282447354265326, 36.091482570522444, 13.756969466259005, 14.32184424421034, -40.60754711581016, 3.2315633633633745, -41.02980670063803, 4.063248534896884, -8.955359891853664, 7.725269084603639, 34.846441948299706, -18.031629744214, -21.574433652399783, -8.151604782326352, 7.7963326509409985, 6.6951441713427915, -11.931544276403852, -8.79866105776129, -9.74438228323223, -9.968849605383532, -6.601359346615718, 10.667780308982088, -10.83050777486796, -10.301064250444792, 27.575470964257548, -19.12764574831634, 0.12183725099058464, -1.5695944286398964, 18.082175063605252, 0.3041805769212407, 16.747742519536907, 27.613899421435235, -7.314922235995629, -2.4520695863992668, -9.682855098225064, -0.563765841181092, -4.700289627708891, 0.33133903503590156, -2.2937337924132932, 13.105016973962696, -1.0265552734666086, -0.912167381684601, -1.7490053514808634, -4.551743484941353, -6.521885058954496, 0.5653202621972726, -6.253632388689811, -3.6481312612814993, 11.601542557881316, 5.294628185827315, 6.741545511328555, -1.5332204263344686, 9.49819214532889, 5.424563413025327, 3.177843476906869, -0.25590372092537716, 12.909813122716503, -2.8770849880109055, -3.661363147792861, -2.849831813131317, 5.3880063388874735, 0.19363356906743778, -2.1517694470633995, 7.8044746726449326, 7.394756504074138, 6.040265875799043, -9.298950603069953, -0.7579925760444293, 1.0834111926752774, 1.757205032654786, 4.923790845862213, 5.192797235432128, -4.5938064267007, -4.037408085662502, 3.0027804969214755, 4.7337885688767045, -3.252393764490858, -0.7202949478876484]",-5.6,-3.75,-5.7,-4.14,1.0,CF:n-hexane (9:1),_,150.0,PEDOT:PSS,MoOx,9.5,9.53,0.94,15.6,65.0
"[-104962.7663977064, -80994.69477143629, 198.02697460794434, -3350.493168720447, -3047.419232833515, -2038.260791053891, -2262.1054222253033, 2230.780940619858, -225.25559773802843, -1042.64624858164, 224.0689074375423, -959.6939439988263, 175.48031114982254, -195.33645878780453, -500.6779488650926, -331.4233845357082, 4.625573062107605, -459.4043751051129, 401.5767690150666, 558.7024219874041, -788.8502566742062, 524.7984664034489, 23.631097807601122, 381.3487534321726, -18.506733095352047, 135.9782523139894, -356.87504690706896, 45.644341024777304, 193.08911058014502, -150.90674973839242, -191.8430266714472, 34.32298515233564, -79.11863644935588, -107.24486410279198, -330.29393596006577, -64.31135697839011, 69.2797674040775, 196.41127644037033, 31.892733764730252, -22.686158759033148, -144.97292990624274, -64.61420729840617, -33.562155253846015, 45.53262897563212, -6.1405458568671065, 5.0767992461629206, -9.863157068478642, -18.117152238407783, 19.56207692508572, -19.234086159352017, 40.218300580329654, 28.831848085144856, -36.8219022190868, -7.53169378920461, 22.849886145314947, -10.979831708733364, -12.562046245055893, -3.4530911396480235, -42.67479278464194, -8.310099021302676, 21.738110102859878, -24.880956652528567, 4.0665733953828465, 16.44702116844084, -8.3299050532464, -9.69125658352096, -15.241143963820306, -4.10550185245679, 3.510594734622856, 3.2072406631825707, 9.737442684773349, 3.913912038026801, 9.511310441551753, 2.6750294751153803, -0.14653350039591118, 0.514686875171904, 5.867212070395411, 1.4341450194165581, 8.93346234937869, -2.8383766935872075, 2.008131139686128, -2.099235117388776, 6.459929123469713, 2.587877513202912, 3.2064644052568667, -0.8845439748090484, -0.11101443023289459, -1.7454360657063575, 1.2347659683540293, -0.737653151831708, -3.5739212807789613, -1.8300457671489454, -0.9848976996066057, -1.4119852181342534, -0.41978445868191017, -3.1306163340944195, -0.6926424295134219, 3.1247331969001095, 0.8963319607549565, 0.3619557144610548, -1.9255737871490837, -1.4357615230020588, -1.085611323741876, 0.5629678529845918, -2.0409099144822633, -0.5379332148731422, 0.13446037910258468, -0.42635308253467663, 0.16155476691467285, -0.34022681627464735, 0.25979518569048565, -0.4439933168161705, -0.3634613525332222, -0.3136182081940717, -0.23569698790332438, -0.016376823629475012, -0.41886613329012334, 0.252121378020739, 0.006651755235882462, -0.20628209772564254, 0.2807594671246392, 0.0037581344550687845, 0.13402377830586154, 0.11634493723326145, -0.09080879199103009, -0.07781566607297918, 0.2779371665800312, -0.20734135903973083, -33136.682543664996, 1819.6125370254526, -22071.053703869547, 6228.409741037077, 7148.596396377288, 7029.577979632607, 7347.4149328404355, -7005.510821801187, 6081.837841979236, -842.7359775964026, -1444.1079013239953, 6704.44591063415, 3415.499295975922, -355.80870551987664, 166.95849094205172, -1902.224227516583, 1391.4401037417917, 689.1890517596973, -575.3780410622945, -784.3852597413982, -56.95538439084751, -77.35918584430485, -0.8644417617765612, -679.5179820254132, -160.289281126657, -323.8965530433906, -319.9147363020955, 350.5488045288654, 30.61735433906601, 60.43120973806332, 146.55798174038821, 254.26478201482817, -30.44533157212317, 34.58783711906745, 42.419636564027044, -42.14000129877141, -256.0267321299926, -62.01371361248174, 223.55391631284292, -57.62989471333077, -154.39295471054345, 120.76596192722361, -60.110428252465155, -43.11704282862701, -45.29528451516023, -43.69141992030301, 12.349522868233237, -3.7359368359381016, -36.82681727723245, 22.11586515889786, 42.275104642554666, 35.15496917978438, -26.92356292954811, 3.547315931759856, 7.004474618365929, -23.214824613378532, -48.98538618827081, -10.990285889571334, -3.2760895854470675, 1.9272765656902173, 104.67080152009856, 3.830047158586439, -12.127603106977114, -29.78173697821351, -4.492413841554402, -36.893916325161584, 42.748890416458025, -29.127464713770078, -32.68145034697045, -11.495139968899458, -33.06126530790547, 10.777076861616724, -23.937900619158633, -6.667303687474513, 5.1006760197194145, -34.504426552623734, 67.81558635581682, -5.305344741798979, -14.233147719368453, 8.415813553522085, -14.883171514916784, -3.747027357595623, -8.963767715735766, 1.6546603009259027, 3.357865504182235, 22.89823765137749, -20.674705525403116, -14.591321934083897, -20.995742958501904, 35.18706656686787, 4.355058582884407, 15.914952359778002, 15.276774424977992, 1.5143204130340049, 11.28516747942616, -0.43382132732630296, -10.392998066689522, 1.5185179830194686, -11.833884174423623, 0.3816600815110842, -4.158884835485271, 8.256373104365993, 6.986743565370901, 3.5695735326306006, 2.1073252227345036, -0.3576647260885577, -8.195154164134742, 11.384923869889935, 0.3683565584208299, -13.332411351055132, -19.27700223040219, 14.163938316968231, 4.478822206436899, -6.741219253299228, -7.254526802810628, 6.872287895964489, -0.8417867771748212, -3.9917356214438264, -4.629435544703515, -2.8242142172315696, -4.82240058671727, -1.071569612453258, 3.30585652150348, -3.016762666313824, 3.948190219236341, 5.757132430616984, 0.7740518607030689, -3.4439454741802376]",-5.6,-3.75,-5.73,-4.2,1.0,CF:n-hexane (9:1),_,150.0,PEDOT:PSS,MoOx,9.4,9.45,0.93,15.4,66.0