DA_mordred_pca,HOMO_D_eV,LUMO_D_eV,HOMO_A_eV,LUMO_A_eV,D_A_ratio_m_m,solvent,solvent_additive,annealing_temperature,hole_contact_layer,electron_contact_layer,PCE_percent,calc_PCE_percent,Voc_V,Jsc_mA_cm_pow_neg2,FF_percent
"[-42856.803992739624, 7210.890542668448, -5032.037770082799, 1377.801135353539, -3813.898623308876, 2893.5873308032124, -2419.9757006247933, 171.06689418063922, -129.5308908536698, -943.2370345439818, 2076.9910813902316, -717.1637111522743, -63.00392448610923, 763.0972727878129, -545.9595506999692, 392.6859412003968, -509.5332206044221, 619.163732875928, -300.09008307569957, -9.152002253022289, -530.8389065644697, 47.90226658330968, -166.7677841518008, -57.620125949957654, -63.67699575256718, 375.1994403335291, 193.42713711730468, -42.128899419622414, -129.01485404616326, -62.31780402339499, 129.679251158889, -73.09813710976195, -16.70536477192575, 89.86491826068674, -20.018608707404965, 86.04604717762706, 41.019575796893974, -59.13151158239771, -55.92675554874596, 4.48496133226412, -32.766182470800345, -6.722893933369509, -68.12498359556058, -57.86919210729395, -29.959227568890913, -24.181128633283823, -7.079576366980673, 32.69242714824868, 12.390590144396139, 4.38086481242545, -8.083153432792262, -7.337703868054564, -12.366124619468051, 10.63477130326647, -5.473692490872569, -21.88851068104357, 8.183795044276888, 1.5080859123075765, -5.7670743717534805, -4.4639748443838485, 4.175556436130011, 0.9551927516920138, 1.6821742130560366, 13.411699077000016, 7.401246343916408, -4.361285005183642, 0.6773610012720255, -11.887146909272158, 0.8857090473952169, 3.681985543852073, 5.844988519917791, -6.465737159100454, -11.330388043032217, -1.4102175358473583, 0.18778971342786566, 0.09227495723950163, 4.879950866261108, -1.5355095407596024, -3.4926140630461915, 6.81131996182018, 5.20904979086697, -1.5459029509864202, 1.3593302761174142, -0.8432915078655601, 4.5201447759841695, 3.7637015374426994, 0.021191831191169852, -0.198683209296588, -4.2069749072365, -1.3222307202362993, -3.9037196966239343, -0.7758527964966984, 4.947349049739871, 2.925294076033402, 6.171927430268492, -6.682586029852548, -5.490672609468501, -3.584793684546117, 0.28169390122466, -0.44486594801894186, 0.4219242162953729, -0.055023239772017396, 3.4354551780791667, -3.2655999368443887, 1.589606256355554, -2.231553730591112, 0.7960665640066038, -0.016684154032527765, -2.425032827144649, -4.181157996874336, 1.3873228610578217, -0.30772805243321943, -1.9830909689030782, 0.9457534192990393, 2.361327839754109, 2.2113709627424836, -0.23070270809374094, -0.059549782745608404, -0.4493748588097386, -3.4928482256419207, 0.23374737731987327, 0.1857447085435613, -1.5724124707429077, -0.41570654944169405, 1.3991643287124749, 0.9347139938826601, -0.1048995391863099, 0.4882864399030771, 238769.38336338624, 97432.05715065966, -9878.54821173489, -22635.92624168494, 7162.005830467528, 800.1197947281408, -4964.0740776903185, 2314.453527289502, 2107.7874483421792, -2114.864905657423, -2073.307630715304, -2654.8999386457726, 2008.4017847736368, -3664.701178163797, -492.9271062641674, 1473.9264282691847, 704.131879318204, 323.0765122368075, 26.328321020760313, -583.3076906498748, 504.46636736506935, -198.05033196663044, 113.74313269270931, 618.9793585358293, 47.953601429788705, -453.8896688370246, 352.39229749534843, 331.6199178629264, 128.2502719006734, -489.311267958314, 132.11695206056922, -6.876142733755728, -54.92229099988026, 313.90660227927765, -247.54752487106197, -277.0047974935161, -222.01848769145977, -116.25388839709478, -225.51417141509538, 124.24066381894636, 3.9826342358977627, -183.61663131925036, -133.82090486642892, -41.307597020670556, -61.73348643548039, -0.6945008323525599, -138.24831739205698, 7.98324749639437, 2.2291805531722844, -4.990589341302041, 40.8110825699206, 7.936594417120602, 66.22842167394583, 39.82687540977906, -30.93445456557049, -19.413196375280734, -7.606458792938668, 16.93890350840212, 55.84399035156059, 23.19904259845191, 7.62503501763365, -4.6752555233263, 6.633348813225695, 1.0055065458133328, 15.222322196752486, 8.835618294020165, -3.237632603823382, 6.949957568496316, -7.461080910849516, 12.511269733233291, -1.5886399610173925, -8.435544563260173, 9.360824404254402, -1.2297930511488886, 5.5419623142033885, 20.989016586986452, -5.53827002682273, -13.493061609253324, -8.047675518728596, 7.087802912066877, -12.260362853212772, -14.298274840753635, -3.6448038251061305, -1.4347977738781879, -3.774499797445003, -0.2651643858812065, 2.1388075759670357, -6.645175333299633, 3.595275509062567, 2.0584666672813405, 3.9549893534842795, 3.5782374062309543, -2.9121315232216602, -4.214000531313275, -1.413846447368229, 5.722590167961826, -0.5206394921417541, 1.5825845401370415, -0.311994644723681, 1.038602509088065, -5.49408567178854, 8.95257362180751, 3.8570531269337125, -4.316844549772937, -1.4072159615458162, 5.551850308949895, 4.570580021033308, 0.03240339233851586, 1.1844478229000686, -1.7469406103503076, -4.768629132843181, -3.6245921981143, 4.5395479183778775, -3.2977682157825114, -0.6606041091950239, -0.013002126434400907, 0.05269077641324316, -0.9846409568847179, -3.4860356352710653, 2.7572661837375136, 3.3244459821753827, 3.186286635463035, 0.19667615244311776, 0.832517308280373, 1.1079856498408347, 0.7912540592971595, 1.9428646335173454, -1.366757190929981]",-5.29,-3.38,-5.34,-3.62,1.0,CF,CN,150.0,PEDOT:PSS,Ca,8.36,8.36,1.18,11.55,61.34
"[-40643.363252391064, 8472.194625733116, 721.8080815762614, 6168.033330289065, -7389.570828796865, 4953.14935141654, -563.0665785822125, -4354.364210213249, 1793.6697313891964, 19.04639257348549, 159.24568621838785, 593.5749230083086, -444.1126084951462, 1570.697891855085, -409.6387511956919, 431.15175300341105, -443.0013469025231, 132.8085681164785, -692.2513694237444, -1384.5321786441236, -643.1573437722775, -84.28894715778307, -530.624609929308, 146.61548791377754, 143.19219246034908, 308.56800430378155, 31.562723339756374, 122.25483875783198, -181.27175616298163, 20.120144084660687, -55.38510521052399, -96.9436650827281, 183.08815396858876, -64.89695175781696, 39.80472799526146, 113.53781864355264, -14.314109381805206, -105.89911088609918, -82.61579951698863, 43.45171722570288, -52.5277887366554, -143.44823920654198, -33.47132168249807, -44.05553197908368, 69.59368461863185, -70.41441223926886, -17.078525859777407, 61.79137892367574, 23.95750524539753, 23.377645913288305, 22.596860447838353, -28.783660252672142, 12.767900684877448, 50.87908128957933, 1.268489185245155, 43.200018318600584, -26.312672354770026, -16.97611965845331, 3.8234261640033864, 25.521134706214667, -0.08247990711456143, -25.320011237370988, -14.086811953491392, 15.105561508248895, -0.625725248569875, 7.822195879952909, 5.871502700790963, 4.113053362900224, -18.396113780570325, 9.422040266823638, -0.5266996338430481, -10.27456024834824, -2.2321846936736454, 8.516860143915865, 8.863055744232366, -7.909303027415175, 1.838286506417278, 12.446337333338098, -1.4543722257439864, 14.793679372389287, 3.770590189617245, -6.661829595583978, -7.0363288294713335, 9.293863472778128, 5.097917325806726, 1.3845479995522645, -3.062516512454394, 0.21156753856289967, -8.105510735764842, 5.3940793250420835, -0.6230667905712295, -4.241800563932731, 0.9994672478001014, 7.231537943460816, 2.7082785763795556, -8.846405923958093, 0.471340110501552, 0.33824046721169765, 1.0504329007489712, 2.534378067710084, -5.289018588945829, 1.2565639096514862, -1.004117895818785, -1.1790949250833318, -0.9101572640537956, 1.120032483454139, 6.841779844342222, -2.3179329872461025, 1.1254693316434503, -1.41422882141684, 1.5062876677325328, 4.1060136878792655, 2.204958108905449, 2.231710087146208, -1.1247090167805602, -0.47178037246231685, 0.21349990280997844, -1.714651937841892, -2.53370536361232, -1.70511677663325, 1.464406972070777, -0.40629537130203275, 2.339319311254577, -0.7441446315771074, 1.461107643953305, -0.34377604219721647, 3.373007767403032, -0.4060052940261958, 238769.38336338624, 97432.05715065966, -9878.54821173489, -22635.92624168494, 7162.005830467528, 800.1197947281408, -4964.0740776903185, 2314.453527289502, 2107.7874483421792, -2114.864905657423, -2073.307630715304, -2654.8999386457726, 2008.4017847736368, -3664.701178163797, -492.9271062641674, 1473.9264282691847, 704.131879318204, 323.0765122368075, 26.328321020760313, -583.3076906498748, 504.46636736506935, -198.05033196663044, 113.74313269270931, 618.9793585358293, 47.953601429788705, -453.8896688370246, 352.39229749534843, 331.6199178629264, 128.2502719006734, -489.311267958314, 132.11695206056922, -6.876142733755728, -54.92229099988026, 313.90660227927765, -247.54752487106197, -277.0047974935161, -222.01848769145977, -116.25388839709478, -225.51417141509538, 124.24066381894636, 3.9826342358977627, -183.61663131925036, -133.82090486642892, -41.307597020670556, -61.73348643548039, -0.6945008323525599, -138.24831739205698, 7.98324749639437, 2.2291805531722844, -4.990589341302041, 40.8110825699206, 7.936594417120602, 66.22842167394583, 39.82687540977906, -30.93445456557049, -19.413196375280734, -7.606458792938668, 16.93890350840212, 55.84399035156059, 23.19904259845191, 7.62503501763365, -4.6752555233263, 6.633348813225695, 1.0055065458133328, 15.222322196752486, 8.835618294020165, -3.237632603823382, 6.949957568496316, -7.461080910849516, 12.511269733233291, -1.5886399610173925, -8.435544563260173, 9.360824404254402, -1.2297930511488886, 5.5419623142033885, 20.989016586986452, -5.53827002682273, -13.493061609253324, -8.047675518728596, 7.087802912066877, -12.260362853212772, -14.298274840753635, -3.6448038251061305, -1.4347977738781879, -3.774499797445003, -0.2651643858812065, 2.1388075759670357, -6.645175333299633, 3.595275509062567, 2.0584666672813405, 3.9549893534842795, 3.5782374062309543, -2.9121315232216602, -4.214000531313275, -1.413846447368229, 5.722590167961826, -0.5206394921417541, 1.5825845401370415, -0.311994644723681, 1.038602509088065, -5.49408567178854, 8.95257362180751, 3.8570531269337125, -4.316844549772937, -1.4072159615458162, 5.551850308949895, 4.570580021033308, 0.03240339233851586, 1.1844478229000686, -1.7469406103503076, -4.768629132843181, -3.6245921981143, 4.5395479183778775, -3.2977682157825114, -0.6606041091950239, -0.013002126434400907, 0.05269077641324316, -0.9846409568847179, -3.4860356352710653, 2.7572661837375136, 3.3244459821753827, 3.186286635463035, 0.19667615244311776, 0.832517308280373, 1.1079856498408347, 0.7912540592971595, 1.9428646335173454, -1.366757190929981]",-5.32,-3.39,-5.34,-3.62,1.0,CF,CN,150.0,PEDOT:PSS,Ca,3.84,3.84,1.24,6.74,45.96
"[1556806.9266347245, -30940.28428257892, 4954.952543055359, 4933.036123574955, -9000.648361663028, 3535.2699796275992, 1771.5173906774617, -261.5267667207281, 145.6174674268127, -1388.4347475163397, -1250.9657925692454, 737.7217235819885, 1569.0997283262677, 269.5748189055412, -216.5877681700931, -1025.511609085459, -34.43255039909502, 412.692721438684, -568.4809624420872, -63.51032221005778, 182.6864345745073, -227.21036025926963, 124.5009155709431, -151.86183334306966, -324.3983710231026, 330.46471377709884, -37.14521749864275, -342.46868857073395, 353.8979247214027, -83.47002771833385, 26.448819469459245, -41.17584850554769, 74.16717971502129, -39.9967042178795, -51.61302232163439, 131.870680094369, -5.146185219514734, -61.958023176332034, -25.49933677056459, -19.823440830428467, -37.07659231206969, 50.53269505297257, 60.81032474887496, -17.478299042687468, -10.921026266289573, -15.46242069405838, 21.224262171276663, -10.365979084027252, -26.547469773979714, -14.55749986169161, 32.63856037492643, -5.300796138403605, -12.567380171509946, -18.026321271783303, 0.9637748752012456, 10.137094008677693, -16.879268944324625, -21.974428079554766, 17.790415865576676, -8.16299225942248, 10.834025912119685, -6.61257319893582, -2.038552912756643, -0.02937831788503331, 4.578668732676036, 4.75502903206614, -6.049868806122447, 7.97011171969708, -3.937197461007173, 7.179449604222324, -2.3900551810044988, -4.0551005945628305, -4.148203856747929, 2.45578043780408, 3.779957574863076, -3.1299587249195966, 4.607292104368753, -5.329918286036108, 2.9050488200647235, -0.8285467072434329, -0.773390841651576, -0.6981343421923896, -0.16845441274200823, -2.70452747707359, -1.577033363520428, 1.7690235257368272, 1.3425834248231778, -1.5888980984167773, 2.65264962015136, -1.4422553795720177, -0.21917509630273457, -0.4514500324068962, 0.8447259780374168, -0.10404504050284391, -0.8196461525052499, -0.6237973765390592, 0.5846798133225146, 0.5505393231679818, 0.4056094629866891, -0.0026852321266703782, 0.7583224108309494, -0.025079607569602702, 0.8587928174149937, 0.6903044448594358, -0.2199813330256397, 0.0979648093233294, 0.01659350296959161, -0.8580373092633101, 0.5459197620192526, 0.5645453112726919, -0.14604183537928606, -0.47275750716333675, 0.44805126279683183, -0.47250124719169406, -0.047359074261962064, -0.10412561233027517, -0.2620358013395965, -0.014017827572182284, -0.19949207682497416, -0.15230088409717446, -0.24134565339478797, 0.33523511758616564, 0.15182122981784274, 0.019908197065113598, 0.1016005168984293, 0.37560334887344027, -0.16709472932147662, -0.014963975552475972, -11710.015296158432, 117542.35581820001, 2859.212998953737, 14783.55593723461, 4203.1755355939085, -9467.093127874954, 2787.2675855160724, 1878.7872834356679, -4624.917761191873, 1015.1194142409948, -2347.1599878515185, 177.08494806626754, 863.5916922888866, -374.7437392777814, 624.0033861232203, 1019.7797312524049, 124.77387922907045, -151.4889079901002, -52.661025544843596, 616.6257916844187, -927.1472215573433, 208.64494042311094, -277.79285972439476, 838.3924643990945, -404.1332706727293, -125.63298127170361, -295.64061432437614, -199.17406071299934, 391.5830014468311, -409.25246226839647, 181.32579595280723, -383.47995348445824, 97.98136263464974, -165.18062500664934, -199.87254382578203, -17.41236293898205, -85.0006544335377, 123.5248429460927, 231.1720632657599, -35.898379745784666, 6.978328789849911, 34.639463651438064, 121.43739201086149, 128.4425238037041, 11.066181584884383, -8.704196454305745, 71.26710862084565, 27.97969219282723, -28.879373403875533, 56.204116278176414, 84.05050056139197, -34.78499287685827, -26.99220750402168, 2.400909870618179, -15.340457476533032, -7.413189929148118, 39.85430466171173, 19.50071121905478, 1.539085212269839, -19.64648144608762, 8.81196349205149, 31.090824814738724, -23.222489375649488, -17.241784667538163, 1.567939775186531, -26.94412100102767, -1.8380292738994282, -17.940908635675918, -14.009423728069457, 21.69450209502203, 5.377275434125487, -2.924762563909946, -3.632082213048939, -11.366897653100288, -18.164812919321182, 13.391401495482413, -8.88092088867107, 5.570950309322059, 4.316437658246002, -7.6170520182978265, 4.228099421168989, 0.9391335969807812, -4.020127825707217, 2.0936301995229627, 3.8224374698889747, -10.797153871361061, -0.12191365945387034, -9.014080256084767, -2.3980898142745257, 2.129541379947195, 5.189566581404193, -1.3736573088697384, 2.7399465673691097, -6.74973753207135, 4.141793505307248, -2.2910937962231515, -3.587594298080379, -2.9911341895424997, -0.24893008463070387, 1.1182979474072567, -0.07769237133531703, 4.046396412207979, -0.39263026803588463, 2.804673499235798, 0.8552264187884333, -4.7991868812643474, -3.2093818121733637, 0.4723215475644533, -1.505415383509689, -3.9262804284467236, -1.842495815021877, -0.8002634141105709, -0.541368248924968, -3.707433975965616, 1.4554890080046938, 0.2536608676729557, -1.5300532324968827, -1.9096980423094312, 2.0708974275840006, -0.525334851838501, 1.5820797245994782, 0.5463438000284846, -0.714353111564856, 2.386122299071582, -0.10013595255826857, -0.07859299057878744, 0.04242351252677423, -1.7350769470085652]",-5.303333333333334,-3.151666666666667,-5.3775,-3.8575,1.0,CF,_,120.0,PEDOT:PSS,PDINO,9.56,9.54,0.87,16.35,67.1