DA_mordred_pca,HOMO_D_eV,LUMO_D_eV,HOMO_A_eV,LUMO_A_eV,D_A_ratio_m_m,solvent,solvent_additive,annealing_temperature,hole_contact_layer,electron_contact_layer,PCE_percent,calc_PCE_percent,Voc_V,Jsc_mA_cm_pow_neg2,FF_percent
"[-40379.550777858196, 56004.069127593044, -10651.726564434246, -16787.81031422943, -4899.992121591016, -824.7283886742232, 3213.3355032253107, -1470.288885595245, 254.4377968009814, -1413.1146630484025, -524.4083602292874, -562.997720813155, -39.53950048797216, -237.61809197268883, 180.52903723581315, -190.73776488072147, -330.80306712396464, 99.72719854979664, -38.288725474699014, -15.193302786029136, -8.532246059522224, 145.04616544768794, 14.962058909511939, 123.04398183642466, 62.852427505583, -16.118058857090944, -46.56859833906233, -0.5575523560657274, -6.36498680353148, 16.394816676055783, 87.85016416866046, 16.04209532118321, 6.728058072640266, 31.819933043206213, 7.247524520540111, -16.595924642037062, 22.429503825143726, -34.30752403737112, -22.117717401179593, -42.53762441373334, 28.137558748772225, 2.22131123168802, 10.678808593591533, -14.694404223731631, 5.672198985063375, -1.6746084012166627, 3.5448396296069937, 4.439322415982939, 2.361717827741181, -7.79091708674293, -7.799464018746011, -0.06700113902227045, 6.275440131612939, 1.6816512012129223, 7.516755854741788, -1.3196602414838896, -1.599423863335157, 0.8523744266797966, 6.5919953227931884, -1.9930726417356155, 2.4730446865395805, -4.86740547502367, -1.6841737660247347, 1.6586533064853555, -0.8074568835944604, -3.2367193878033773, -2.1849438483133383, 0.21206456314353517, 3.0809245279681186, -0.19938566599949326, -1.7618285128175284, -0.05980224728117811, 2.9080797958751314, -0.2649007688640488, -1.4904110395030248, 0.9599817863349642, -2.062231625754352, 0.18250954513997886, 1.0587154103407115, -1.8898659848741381, 0.0828903647949275, 1.32594414559665, 0.358456040618492, -0.08392299601673514, -0.7357168466038431, 0.5569749078821111, 0.46639264895316324, 0.8106144831234943, 0.0036309183357334796, 1.615344045763857, -0.8126052081822834, 0.008561986029853585, -0.4374767812936806, -0.3645528964956295, 0.3530253133670438, 0.01993774228438383, 0.21970565142439824, 0.05638899422120147, 0.33798152978198814, 0.10894087739224645, -0.2310380143835129, 0.5971144474169652, -0.0568340402989147, -0.14432609544563313, 0.09196812189175685, -0.12801448064831078, 0.08893783919220155, 0.08315346312763339, 0.2048785099106445, -0.21622713001348914, 0.12256202799790294, 0.10820379300091787, 0.1865751938394018, -0.1645796925672459, 0.09908524542788655, -0.09534185566811182, 0.05572017504187965, 0.08364897859544218, 0.04476089133255723, -0.03247571883968092, 0.01741547505732921, -0.03798876088742631, -0.039233448534753634, -0.00874733060879862, 0.018554743515469596, 0.022867216035734828, 0.052540313824602336, -0.04783066929916302, -11710.015296158432, 117542.35581820001, 2859.212998953737, 14783.55593723461, 4203.1755355939085, -9467.093127874954, 2787.2675855160724, 1878.7872834356679, -4624.917761191873, 1015.1194142409948, -2347.1599878515185, 177.08494806626754, 863.5916922888866, -374.7437392777814, 624.0033861232203, 1019.7797312524049, 124.77387922907045, -151.4889079901002, -52.661025544843596, 616.6257916844187, -927.1472215573433, 208.64494042311094, -277.79285972439476, 838.3924643990945, -404.1332706727293, -125.63298127170361, -295.64061432437614, -199.17406071299934, 391.5830014468311, -409.25246226839647, 181.32579595280723, -383.47995348445824, 97.98136263464974, -165.18062500664934, -199.87254382578203, -17.41236293898205, -85.0006544335377, 123.5248429460927, 231.1720632657599, -35.898379745784666, 6.978328789849911, 34.639463651438064, 121.43739201086149, 128.4425238037041, 11.066181584884383, -8.704196454305745, 71.26710862084565, 27.97969219282723, -28.879373403875533, 56.204116278176414, 84.05050056139197, -34.78499287685827, -26.99220750402168, 2.400909870618179, -15.340457476533032, -7.413189929148118, 39.85430466171173, 19.50071121905478, 1.539085212269839, -19.64648144608762, 8.81196349205149, 31.090824814738724, -23.222489375649488, -17.241784667538163, 1.567939775186531, -26.94412100102767, -1.8380292738994282, -17.940908635675918, -14.009423728069457, 21.69450209502203, 5.377275434125487, -2.924762563909946, -3.632082213048939, -11.366897653100288, -18.164812919321182, 13.391401495482413, -8.88092088867107, 5.570950309322059, 4.316437658246002, -7.6170520182978265, 4.228099421168989, 0.9391335969807812, -4.020127825707217, 2.0936301995229627, 3.8224374698889747, -10.797153871361061, -0.12191365945387034, -9.014080256084767, -2.3980898142745257, 2.129541379947195, 5.189566581404193, -1.3736573088697384, 2.7399465673691097, -6.74973753207135, 4.141793505307248, -2.2910937962231515, -3.587594298080379, -2.9911341895424997, -0.24893008463070387, 1.1182979474072567, -0.07769237133531703, 4.046396412207979, -0.39263026803588463, 2.804673499235798, 0.8552264187884333, -4.7991868812643474, -3.2093818121733637, 0.4723215475644533, -1.505415383509689, -3.9262804284467236, -1.842495815021877, -0.8002634141105709, -0.541368248924968, -3.707433975965616, 1.4554890080046938, 0.2536608676729557, -1.5300532324968827, -1.9096980423094312, 2.0708974275840006, -0.525334851838501, 1.5820797245994782, 0.5463438000284846, -0.714353111564856, 2.386122299071582, -0.10013595255826857, -0.07859299057878744, 0.04242351252677423, -1.7350769470085652]",-5.353333333333333,-3.4318181818181825,-5.3775,-3.8575,0.667,CF,_,120.0,PEDOT:PSS,PDINO,10.46,10.5,0.9,17.75,65.7
"[-28876.479514377246, 38710.98347551014, -20908.77495808319, 5626.348234502178, -1656.055181725424, 1614.7421905025894, -3321.8898992590207, 3624.9205765371394, 1367.3145788102668, -2302.518667671884, 94.37774075163452, -763.9951636274479, 584.4175075601404, -69.48391721022313, -824.1439034933876, -1177.9097377797627, 846.8801744161406, 734.5057220652027, -464.5560000411756, -28.423642255227662, -523.6717686324714, -227.57207596555568, -357.5888090976363, -120.42021566553105, 235.21227013032157, 347.25019048092594, -42.39610314784511, 11.228483818106525, -379.8900791394773, 189.69632432763535, -184.61420289522226, -145.35082509816692, 87.82565535186399, -52.27957236598499, 151.3822493073156, -22.393178058349577, 69.55179616178063, -144.23659693592174, -14.84123085603845, -86.21051655816997, -26.748680566162307, -10.509996967889123, 29.10728281465549, 49.86166992244324, 5.937208803780237, -27.40652118128881, -16.453639580779956, -31.382862017953613, 0.11925841988094987, -75.27978976028044, -21.60573513783781, 34.456242967463915, -23.50687563251384, -23.247360957433756, 15.680950604168594, 21.5946893561876, 13.697832438672465, 4.269828179821335, 15.980999303447263, -0.738649707005635, -24.258988135209513, -10.030928827146468, -1.4093168944558556, -22.319559395338317, -9.99018101112368, 11.311905495006943, -14.720237471649313, -6.308653567563972, 1.9588923960491655, -13.267005954955376, 23.358015442320898, -0.4292450914806807, -7.786037327515007, 3.276886691372404, -0.6480655836591822, -11.162110200283454, -12.010162518559898, -8.035379877149856, -1.8399880527716945, -6.408948170302331, 1.497915920437336, -12.254836767464589, -1.5637399801978802, 2.8359510203764344, 7.519719839225232, -4.670112863904997, -0.266944493875638, 1.382276897824731, -0.7813796672346589, -1.0866923291168362, -1.6044026041736004, -1.7723187737767425, -5.208194241733786, -0.2997350154595191, 1.1864878065024662, 0.8973312876125235, -0.9764562054682102, -3.3040369718945115, 0.21358987930646123, -1.7383529771845927, -1.0101047087919461, 0.012312869449343289, -3.3775516827834586, 2.9866425837985133, 1.8547418210764626, -0.4907408672473963, 1.225386590844785, 1.983688021755615, 0.0963277592071643, 1.1081595041820398, -2.1947145606164398, 0.21612145561748086, -1.405130707846566, 1.166408509453893, -0.2787631012169385, 0.5629018624262763, -0.1951689671167287, -0.029314012718733018, -0.17591819424983512, 0.09975985010201205, 0.007799969776744575, 0.5947505396503345, 0.23569604584078974, 0.6273005587696936, -1.166719598714721, 0.1247011502067572, 0.9357092976474313, -0.12189953500508821, -78075.75498049763, -118076.08473484853, 29104.532004168006, 5875.865852564966, 255.950698233175, -4956.403532616757, -3027.9094332783316, 1273.2577252050596, -1049.971458435921, 1995.1789386060111, -1313.3872106504723, 1292.559170965022, 972.8957767794859, 784.6624309433921, -635.9853464572047, -319.7423426702585, -396.1510203219459, -979.440588156704, 151.9357885127547, -35.57181073200354, 449.4593451218175, 346.85737542543643, -64.12635823713845, 471.69748207109683, 294.3370941124963, -113.39381493561939, -172.5796318691854, 114.24584665150444, -310.738396535877, 167.6978832447772, 6.4487660481338835, -45.71432569730837, 15.579644449015348, 3.8733078808595565, 41.58011635575022, 56.86963956910492, -149.06170015930672, -61.53472710732615, -9.366638080205806, 8.358146311447513, -92.06730499485258, -18.455432391260274, -49.57572780911744, -45.404250772040626, -23.67546084936984, 15.78705407761609, -0.7632253371750721, -14.0593462537461, -19.318485824059337, 5.16045548467855, 41.50887220661331, -12.15858379129594, -7.0334706014246535, 9.749726314369497, -4.276975652104284, 7.5066063842321, 19.14931500205566, 8.773896797277246, -11.088011843227491, 3.300670154050181, -16.08565089039115, 13.484276326125425, -2.0107864835974567, 0.8012823668953928, 7.36382837987577, -7.2060654187509865, 5.880839492776145, 11.902173832678194, -2.454020234662604, 5.289233921891054, 2.206318272334272, 0.8642288292509761, -0.17810255228403093, 4.880697092070115, 2.997768592853223, 5.078935950230772, 0.6615404580787612, -2.4321842671258906, -4.361537966269651, -5.067406294236363, -6.098875653620397, 2.0296017309619288, -3.7205254000452044, 1.7475522821006564, -2.0587388597965344, 1.113812700578734, 0.5315267588976909, -0.2703264021863703, 0.46103154307434835, -3.745050987293194, 2.406372819014834, 3.5899374940757554, -0.8529015304823417, 2.395492753664314, 1.7879954839569479, -2.365605494254332, -1.5863758479521124, 0.5247400502301076, -0.5292227031958863, -1.3624797784297584, 2.2242092796714488, -0.1594438274686425, -0.9464697326852517, 0.8234417640056053, -0.06555679187322028, 2.489740042780774, -0.7789374882895501, -1.5527305588123959, -0.46271835412552065, 1.4434225530875224, -0.2894129773833498, 1.1536332976632835, 1.3103310181282097, 0.014127842884548159, -0.19543101801733798, -0.2770240634948351, 0.23906534534624768, 0.130547100854848, -0.3414848787346543, 0.05457140571088814, -0.5438122106710002, 0.20465763047534935, 0.19994977123417712, -0.5135255547112365, -0.5718140372388518, 0.41317084016889893, -0.1375299881973291, -0.004673916868647154]",-5.24,-3.056666666666666,-5.706,-4.002666666666667,1.0,CF,_,25.0,MoOx,ZnO,6.94,6.43,0.796,12.24,66.0
"[-71672.93719550116, 52297.55164213053, 21893.237929127878, 11158.0920000457, -990.4382161084791, 1223.8978294548006, 2288.5848639546907, -646.1265944747943, 3951.5653186852105, -1295.346836939237, -763.9309582464939, -3638.3851172573254, -4183.628236668846, -1467.2069581569233, 228.87228010409876, 50.327766914942686, 1585.0351835242222, -297.9778963560834, -2108.772745479553, 306.35435232020114, -352.89245612540304, -933.5882156075277, 0.6431064207282589, 537.2088120930396, -314.23681019021967, -88.44683041318592, -562.1813891573388, 113.88123772398424, -456.854140920845, 177.4107023098652, 30.721168030202485, 151.88523122666086, 157.46699241526596, 131.283905196113, -89.20556592671596, -85.51689666169943, 104.26694331713222, -9.942432395421037, 9.831878851175492, -96.55451536803072, -29.68971044522162, 165.35243340068354, 31.803975537912265, -20.058272939569036, -81.65873295023997, 55.54310875896775, -37.14404101468111, -48.62017922620447, -23.89789341616443, 28.11249975506709, 11.729094206908059, -29.10146477008174, 0.9132033790085607, 20.054362151096328, -3.1851761445404385, 3.6995114982017796, -23.29122413119788, 21.73320788719247, -11.1772223424843, 22.08545443289293, -15.555969394420872, 7.283806916100673, -3.482218618972695, -1.6727715092694737, 3.4057748482040076, -4.2937655602476035, -9.46775932812983, 17.21739520282293, 0.5533523849335467, 9.120297190526736, -4.221040413990785, 8.819754317467918, 1.480655956685422, -3.2823811718026725, 7.814688652184799, 1.5912663646854526, -0.18119169366903165, -1.8730721163770703, 0.3222303684750163, -0.23325651723956753, -7.0431476650097835, 2.8023388969201086, -1.7978291332353251, 0.6455171179747872, 0.42030201828717395, 2.8784768253846025, -4.4042683986582425, 2.7858007723128466, -1.0955266550309295, -4.338379405710052, -2.233163096712488, 0.8103683797161239, -0.378851407737157, -0.9703974312661534, 1.0304859575292085, 1.0619448041294248, -0.5231681642018806, 0.9157253238659493, 1.8884413019618407, 3.341852633918065, 0.5254684134255285, 1.5372299848905668, -0.171930680183348, 0.93032118493932, -2.447326838529383, 1.6645044726552065, 0.1575557113563728, -1.062649786097321, -2.2302915874572893, -0.4038180570471894, 0.8771819819446982, -1.2975245222183034, -1.06385617983676, 0.9140510943120788, -1.1821072218252056, 0.6415209155072005, -0.13706124202408176, -0.5093766863573777, 1.1408141743854863, -1.063309990876336, -0.24075500169506636, -0.9150996042134025, -0.13592119622762056, 0.4476524202818375, -0.3912489669029924, 0.5017203273082593, -0.24769934740579913, -0.23608894314790518, -78075.75498049763, -118076.08473484853, 29104.532004168006, 5875.865852564966, 255.950698233175, -4956.403532616757, -3027.9094332783316, 1273.2577252050596, -1049.971458435921, 1995.1789386060111, -1313.3872106504723, 1292.559170965022, 972.8957767794859, 784.6624309433921, -635.9853464572047, -319.7423426702585, -396.1510203219459, -979.440588156704, 151.9357885127547, -35.57181073200354, 449.4593451218175, 346.85737542543643, -64.12635823713845, 471.69748207109683, 294.3370941124963, -113.39381493561939, -172.5796318691854, 114.24584665150444, -310.738396535877, 167.6978832447772, 6.4487660481338835, -45.71432569730837, 15.579644449015348, 3.8733078808595565, 41.58011635575022, 56.86963956910492, -149.06170015930672, -61.53472710732615, -9.366638080205806, 8.358146311447513, -92.06730499485258, -18.455432391260274, -49.57572780911744, -45.404250772040626, -23.67546084936984, 15.78705407761609, -0.7632253371750721, -14.0593462537461, -19.318485824059337, 5.16045548467855, 41.50887220661331, -12.15858379129594, -7.0334706014246535, 9.749726314369497, -4.276975652104284, 7.5066063842321, 19.14931500205566, 8.773896797277246, -11.088011843227491, 3.300670154050181, -16.08565089039115, 13.484276326125425, -2.0107864835974567, 0.8012823668953928, 7.36382837987577, -7.2060654187509865, 5.880839492776145, 11.902173832678194, -2.454020234662604, 5.289233921891054, 2.206318272334272, 0.8642288292509761, -0.17810255228403093, 4.880697092070115, 2.997768592853223, 5.078935950230772, 0.6615404580787612, -2.4321842671258906, -4.361537966269651, -5.067406294236363, -6.098875653620397, 2.0296017309619288, -3.7205254000452044, 1.7475522821006564, -2.0587388597965344, 1.113812700578734, 0.5315267588976909, -0.2703264021863703, 0.46103154307434835, -3.745050987293194, 2.406372819014834, 3.5899374940757554, -0.8529015304823417, 2.395492753664314, 1.7879954839569479, -2.365605494254332, -1.5863758479521124, 0.5247400502301076, -0.5292227031958863, -1.3624797784297584, 2.2242092796714488, -0.1594438274686425, -0.9464697326852517, 0.8234417640056053, -0.06555679187322028, 2.489740042780774, -0.7789374882895501, -1.5527305588123959, -0.46271835412552065, 1.4434225530875224, -0.2894129773833498, 1.1536332976632835, 1.3103310181282097, 0.014127842884548159, -0.19543101801733798, -0.2770240634948351, 0.23906534534624768, 0.130547100854848, -0.3414848787346543, 0.05457140571088814, -0.5438122106710002, 0.20465763047534935, 0.19994977123417712, -0.5135255547112365, -0.5718140372388518, 0.41317084016889893, -0.1375299881973291, -0.004673916868647154]",-5.36,-3.43,-5.706,-4.002666666666667,1.0,CF,DIO,25.0,MoOx,ZnO,10.37,10.37,0.834,16.98,73.2