DA_mordred_pca,HOMO_D_eV,LUMO_D_eV,HOMO_A_eV,LUMO_A_eV,D_A_ratio_m_m,solvent,solvent_additive,annealing_temperature,hole_contact_layer,electron_contact_layer,PCE_percent,calc_PCE_percent,Voc_V,Jsc_mA_cm_pow_neg2,FF_percent
"[-105631.73783275932, -74572.73247403272, 4329.753734020427, -2341.4243576849567, -5555.485216633641, -172.87819728700106, -798.6979620852667, 856.8010146047068, -1780.8026309386028, 649.5717848685752, 65.62447326392157, 388.30062073400836, -353.1258883999071, -137.697950651705, 31.52142203119479, -106.39355730444561, 81.98057692092414, -63.14138686604906, 66.8688432765725, -31.850017336689234, -14.562814664564094, -114.9941249091529, 19.27422754978045, 6.86920436049806, -13.362968611123335, -88.88424698589336, -9.680549433746734, -6.256532059762719, -19.287322586292646, 30.85187752382363, -0.060728621664203786, -1.7204165771485123, 18.096287928493183, -5.394264557244732, 40.036620565000476, -33.18107886987201, 2.1644049971745574, -3.5496157331860445, 9.702406188567533, -7.574832588501394, 9.796433451870143, 2.157829321761511, -3.1218789726135014, 6.6756247366353705, -7.1588684345745435, -6.697268175137552, -1.4052090508045652, -1.9646060063565116, -5.4204105421624575, 3.32941670679557, -3.8499636318233144, -4.615352531498566, -0.07975953344401887, 3.391194367932755, -4.106358123047258, 1.501503218822819, 0.9563824343184066, -2.6973013366915453, 0.8798263076499495, -1.2664639901547048, 1.2677471291641744, 0.13775840341868673, -2.0083004655011223, 2.233635675897844, -1.9092080674585787, 1.3281780039048954, 1.7708225501106938, 0.11723884380987926, -0.7217945654510771, 0.020674104910288094, 0.6321921645490995, -0.12750860712933587, -0.7324806057772388, 0.387690081710673, 0.5704773577055064, -0.5561048571084157, 0.13303415142318897, -0.39533728660630274, -0.19314666767595423, -0.17136554860633169, -0.3105600644218782, 0.09227497024608411, 0.3640581811437116, 0.12456153887661969, -0.4900314009409783, -0.2105542507325282, -0.11287961723428896, -0.4896110545300445, -0.2576249538547408, 0.020036158749878297, 0.19004174677945684, 0.43512588848888356, -0.15984926722186188, -0.03699898168409543, -0.16184812575650298, -0.018640178199959223, -0.06970965394751483, 0.02644608400954951, 0.4184249457529603, 0.06710147780425979, -0.1455202420919477, -0.027435290436191195, 0.055771972451445606, -0.09475802435058256, 0.24207868559446766, -0.05282116924259128, -0.1882724966860181, -0.05346045629421603, -0.10831494984240475, -0.0036262226167114164, -0.026380022030597416, 0.020118181288705017, 0.03512820925391846, 0.029024371883522804, -0.050134402663047695, 0.01941571781524054, 0.00820689833365762, 0.059280726425585684, -0.07718365209846922, -0.05673269250273272, 0.03097365628437565, 0.0007247489018915587, 0.008388415516517256, 0.019782146741892603, 0.003491413958400358, 0.005668303566913835, 0.008251200563019978, 0.015433351818131769, -35793.95453555041, -3641.7574373895586, -32014.419586894284, -5736.315896185808, 8368.363973190932, 11210.660212522627, -1331.9527924007998, 5743.402475989387, -4667.846279913203, -2609.173150500497, 2999.5646165476055, -872.4844639687803, 2895.6543755240145, 1334.5004490152658, -51.087414431305035, 1457.326885683232, -1937.4743088191308, 1159.9927094813368, -1708.0878295375708, 932.6880296756179, 369.7473233536499, 135.51191504158083, 191.13201336221746, -1149.3616848594324, -416.5465684167714, 1137.2869257217742, 460.03625095079445, -959.4196654220029, -439.17125060293085, 487.29048468595033, -718.6678858624759, 428.92124035573863, -159.329378175701, -281.94656112865624, -95.45622652739894, 83.36265381653413, -47.642677343498804, 197.9990263605539, -224.88858856702146, 2.5437981916089996, -182.00679673906907, 201.57604339487068, 161.56305306193406, 5.480314006138407, 69.97625029346553, -15.23402280738879, -134.89620665197268, 16.280935879719166, -167.56757354101617, 220.0080861383695, 34.645194288322685, -123.71315525729652, -87.16750379093106, 129.5707398458627, 27.593581315341098, 26.529199515067, -45.60245751763494, 45.18162581181144, 6.487463200700262, 129.3243955649752, 18.1877556530668, 26.606879352121158, -99.15434273461076, 31.322627048525067, -8.442835486248953, 1.0418222099677057, 6.40761033184852, -4.298440470780698, -17.372382134181994, -5.353822763773859, -17.394874112814563, -20.299867558292533, -51.37436592001546, 17.68804778864613, -21.579858273565446, 9.083326343128824, -7.61213664481982, 9.502492519482306, 32.70027303088445, 19.299515508885115, -8.532407380564178, 51.8147613978991, -16.152795233461624, 47.09421511000899, 11.56314797275056, -1.3389287285525242, -4.187781997591753, 19.23186494388668, -10.32012967773297, -23.978054666790644, 20.998217799161772, -4.752007738358689, 14.58630144278619, -9.057735780173061, -3.6185190297492014, 14.504405855559192, -11.942154614322849, -3.0146161821802835, -11.44383548674356, -5.356066490434003, 5.11416896167019, 3.0660675099041494, 2.206742673205026, -17.42527486259224, -1.4061917281150542, 13.08929440394217, 9.881373955740226, -6.809413309099186, 13.218999049148163, -5.441994293807937, -1.2463079004465634, 1.6065007131202922, -3.4067495563447885, 0.354929398140186, -4.936218737884829, -2.945518043039643, -1.144039387531933, -2.2503674208958397, 1.3814981489286744, -2.023213214413211, 1.0644979279727087, -6.216472495850344, -3.7165364677458044, -1.602512107961756, 9.841318183771635, 4.620914039612216, -1.1637041671714456, -2.2721888345669274]",-5.204782608695651,-3.5391891891891896,-5.5,-3.88,1.0,CB,DIO,25.0,MoOx,ZnO,12.16,12.11,0.68,26.12,68.2
"[-105631.73783275932, -74572.73247403272, 4329.753734020427, -2341.4243576849567, -5555.485216633641, -172.87819728700106, -798.6979620852667, 856.8010146047068, -1780.8026309386028, 649.5717848685752, 65.62447326392157, 388.30062073400836, -353.1258883999071, -137.697950651705, 31.52142203119479, -106.39355730444561, 81.98057692092414, -63.14138686604906, 66.8688432765725, -31.850017336689234, -14.562814664564094, -114.9941249091529, 19.27422754978045, 6.86920436049806, -13.362968611123335, -88.88424698589336, -9.680549433746734, -6.256532059762719, -19.287322586292646, 30.85187752382363, -0.060728621664203786, -1.7204165771485123, 18.096287928493183, -5.394264557244732, 40.036620565000476, -33.18107886987201, 2.1644049971745574, -3.5496157331860445, 9.702406188567533, -7.574832588501394, 9.796433451870143, 2.157829321761511, -3.1218789726135014, 6.6756247366353705, -7.1588684345745435, -6.697268175137552, -1.4052090508045652, -1.9646060063565116, -5.4204105421624575, 3.32941670679557, -3.8499636318233144, -4.615352531498566, -0.07975953344401887, 3.391194367932755, -4.106358123047258, 1.501503218822819, 0.9563824343184066, -2.6973013366915453, 0.8798263076499495, -1.2664639901547048, 1.2677471291641744, 0.13775840341868673, -2.0083004655011223, 2.233635675897844, -1.9092080674585787, 1.3281780039048954, 1.7708225501106938, 0.11723884380987926, -0.7217945654510771, 0.020674104910288094, 0.6321921645490995, -0.12750860712933587, -0.7324806057772388, 0.387690081710673, 0.5704773577055064, -0.5561048571084157, 0.13303415142318897, -0.39533728660630274, -0.19314666767595423, -0.17136554860633169, -0.3105600644218782, 0.09227497024608411, 0.3640581811437116, 0.12456153887661969, -0.4900314009409783, -0.2105542507325282, -0.11287961723428896, -0.4896110545300445, -0.2576249538547408, 0.020036158749878297, 0.19004174677945684, 0.43512588848888356, -0.15984926722186188, -0.03699898168409543, -0.16184812575650298, -0.018640178199959223, -0.06970965394751483, 0.02644608400954951, 0.4184249457529603, 0.06710147780425979, -0.1455202420919477, -0.027435290436191195, 0.055771972451445606, -0.09475802435058256, 0.24207868559446766, -0.05282116924259128, -0.1882724966860181, -0.05346045629421603, -0.10831494984240475, -0.0036262226167114164, -0.026380022030597416, 0.020118181288705017, 0.03512820925391846, 0.029024371883522804, -0.050134402663047695, 0.01941571781524054, 0.00820689833365762, 0.059280726425585684, -0.07718365209846922, -0.05673269250273272, 0.03097365628437565, 0.0007247489018915587, 0.008388415516517256, 0.019782146741892603, 0.003491413958400358, 0.005668303566913835, 0.008251200563019978, 0.015433351818131769, -34168.71975952568, -6617.946997857045, -5232.868961773734, -575.8998889763202, 5904.0541967047175, -7396.102196078913, 5165.622441829092, -5418.327899908022, 5001.595528893488, 697.5332901476633, 1646.1438145324291, -2902.1723042925137, -1107.284469838882, 30.647363684961817, 898.0502254133065, 32.22832658668116, -855.7866459739479, 143.4602872943724, 31.63685878614397, 265.0845800476923, 22.963620393269906, 380.8572682426791, -535.5732706822126, -609.0952053130611, 329.77985146349226, -84.02106986953005, -284.62414588581044, -37.545999488058506, -7.187271079419105, 109.32320725470353, 80.99591227240214, -214.18229048781996, -23.135349438264086, -163.52725717801258, 104.42339114632792, -18.328272753389392, 1.5872492017319502, 45.94783196261614, 117.289144827282, 81.83440971578457, -27.746278836887527, 1.6731836480184512, 15.49256893200991, 22.62163052195016, -53.699827402332176, -11.392980827338658, 21.18390307318525, -35.170843546473854, 10.867956146476626, -12.626407200788485, -14.589139202401205, -37.1500294160763, 0.3812214727518146, 14.456764552438528, 17.148370069589888, 16.226929289585204, 3.312160609017301, -21.971265899108325, -21.63739853154175, -12.739099814165044, 5.745093365724943, -13.182769675006742, 21.45410092716238, -3.591262478833853, -16.260973466267014, 14.741425269235444, 14.585428766323085, -11.988885863634781, -2.3353118919824802, 3.147210248308552, -4.117347588964447, 11.72880127251275, 5.266851783087773, -3.2913567500652254, -1.8576864116487282, -12.928330457016273, -0.7742374289969858, -6.012627014469167, -0.2860623706658636, -3.259653384923336, 3.212560766744435, 0.03535350691373851, -11.878703210010592, 7.718996557889742, 7.409243483149632, -8.353720894914716, 0.006604461637840231, -0.4859588063142244, 2.2307641762886554, -0.4056540629946709, 1.7563320414936268, 1.099509921597015, 1.037983411246877, 2.0560542574645844, -1.3100848787961095, 0.34833059264400745, 4.475081005345103, -4.91621172103798, -1.1491017033453974, -4.304306451647456, 2.939208464721359, -4.512348693167606, 3.9964861322219694, -1.6889024913184887, -2.528814707175364, 4.054459788695098, 0.2849921740571226, -1.7049651315320205, -4.00692873700485, -1.0427923295465718, 2.0831075516927955, 1.860239464766237, 2.334630490688051, 2.0090271934360446, -1.2133715901348197, -1.0196880165274997, 3.780568436947158, -1.9889321759293965, 0.012242491456252225, -2.056354308739138, 2.9923868740148274, 1.7085740352153693, 1.5013993550572136, 0.8893315587786041, -0.35777753765930154, 1.3149751093738669, 1.5662713007594569, -2.2336281290156794]",-5.204782608695651,-3.5391891891891896,-5.52,-3.69,1.0,o-DCB:CF (4:1),CN,25.0,PEDOT:PSS,Ca,7.7,8.32,0.99,14.0,60.0
"[-105631.73783275932, -74572.73247403272, 4329.753734020427, -2341.4243576849567, -5555.485216633641, -172.87819728700106, -798.6979620852667, 856.8010146047068, -1780.8026309386028, 649.5717848685752, 65.62447326392157, 388.30062073400836, -353.1258883999071, -137.697950651705, 31.52142203119479, -106.39355730444561, 81.98057692092414, -63.14138686604906, 66.8688432765725, -31.850017336689234, -14.562814664564094, -114.9941249091529, 19.27422754978045, 6.86920436049806, -13.362968611123335, -88.88424698589336, -9.680549433746734, -6.256532059762719, -19.287322586292646, 30.85187752382363, -0.060728621664203786, -1.7204165771485123, 18.096287928493183, -5.394264557244732, 40.036620565000476, -33.18107886987201, 2.1644049971745574, -3.5496157331860445, 9.702406188567533, -7.574832588501394, 9.796433451870143, 2.157829321761511, -3.1218789726135014, 6.6756247366353705, -7.1588684345745435, -6.697268175137552, -1.4052090508045652, -1.9646060063565116, -5.4204105421624575, 3.32941670679557, -3.8499636318233144, -4.615352531498566, -0.07975953344401887, 3.391194367932755, -4.106358123047258, 1.501503218822819, 0.9563824343184066, -2.6973013366915453, 0.8798263076499495, -1.2664639901547048, 1.2677471291641744, 0.13775840341868673, -2.0083004655011223, 2.233635675897844, -1.9092080674585787, 1.3281780039048954, 1.7708225501106938, 0.11723884380987926, -0.7217945654510771, 0.020674104910288094, 0.6321921645490995, -0.12750860712933587, -0.7324806057772388, 0.387690081710673, 0.5704773577055064, -0.5561048571084157, 0.13303415142318897, -0.39533728660630274, -0.19314666767595423, -0.17136554860633169, -0.3105600644218782, 0.09227497024608411, 0.3640581811437116, 0.12456153887661969, -0.4900314009409783, -0.2105542507325282, -0.11287961723428896, -0.4896110545300445, -0.2576249538547408, 0.020036158749878297, 0.19004174677945684, 0.43512588848888356, -0.15984926722186188, -0.03699898168409543, -0.16184812575650298, -0.018640178199959223, -0.06970965394751483, 0.02644608400954951, 0.4184249457529603, 0.06710147780425979, -0.1455202420919477, -0.027435290436191195, 0.055771972451445606, -0.09475802435058256, 0.24207868559446766, -0.05282116924259128, -0.1882724966860181, -0.05346045629421603, -0.10831494984240475, -0.0036262226167114164, -0.026380022030597416, 0.020118181288705017, 0.03512820925391846, 0.029024371883522804, -0.050134402663047695, 0.01941571781524054, 0.00820689833365762, 0.059280726425585684, -0.07718365209846922, -0.05673269250273272, 0.03097365628437565, 0.0007247489018915587, 0.008388415516517256, 0.019782146741892603, 0.003491413958400358, 0.005668303566913835, 0.008251200563019978, 0.015433351818131769, -70048.18647634349, -90606.74223392493, 23370.736723464317, 7667.644029175744, 13792.167071441674, -4008.9764733228267, 1880.3891028984472, -2951.804481554097, 4085.4026237119497, -105.36984446607107, 2770.7501407941245, -3460.7934462500193, 1649.4608942330792, 216.7910894106268, 910.9321416590709, -227.52867852747067, -1681.3505780320843, -1646.4734244566403, 570.7341459728117, -604.0336238891566, 224.14190242798668, 314.0508029718633, -351.71587519388885, -230.7510837032513, 90.37326027175118, -80.45727838025186, -568.5636454452558, -66.146477603575, -284.5611710760361, 110.70064774883619, 80.23126726568583, -96.87531230368825, -8.977720524170081, -299.9589306256481, 69.21215856105096, 23.535813119743878, -42.404611333500554, 14.770498196555877, 39.71853025924313, 73.12318638620673, -136.05702132938825, -59.4355882757998, -74.29521479832874, 28.526940223552828, -7.48767327013978, -73.67568963839723, 37.587446009156565, -63.27094461262445, 4.493303701378096, 14.068006853680444, 48.61045774887504, -31.4242079848552, 27.177513987980063, 1.0874533801192854, -28.12101493236321, -51.96595135124946, 23.32042151299555, 23.86725583430112, -9.138487075307467, 30.122859805826124, 34.232146568386014, -28.795012148983076, -11.881845199393979, -5.71070533245414, -35.479741934917, 24.247539775503267, 0.8766413092630536, -8.701555617105278, 0.07288585141206028, 2.4166491652685096, 7.118269974886488, -5.771428524382875, 2.4463627379088706, -0.3093623025452814, -0.05439308846453095, -11.72614987207956, -13.05141100541934, -9.214977349355117, -9.867130652543821, 6.784974883818336, 3.0052888912209, -0.2746421918279722, -4.097102572085667, -2.785005526555622, 3.531913524714213, -3.354852877426495, -2.226989383034528, 2.0676825209816485, 3.9064745459661605, 9.224248156884386, -0.9528023062553643, 1.7895071856419946, -5.396770071386598, 1.9857449636561029, 1.1064309692910115, 3.627372604343101, -3.5103555933971293, 1.1498629777732567, -5.112983957666247, -2.6127342217237413, -1.3439807900242897, 3.5490440778923897, 6.242483509316841, 6.401546618264263, 7.51821213192332, 0.7918967414977267, 0.19206987208539417, 2.493625573798683, 3.617789405708808, 2.453418107886229, 8.488157049428747, 1.3899371179866975, 0.8936048656590998, -3.640507653937064, -5.695283310319796, -2.8558607860077956, -1.5270185070372548, 3.3102179358252286, -4.300581519057538, -0.3853646713621046, 3.358113353016652, 0.40155152985277454, -0.5009502835872199, -0.36281065959168046, -2.0145129156148234, -1.6181398972303107, -0.035481714031647016, 0.5243228157137452]",-5.204782608695651,-3.5391891891891896,-5.37,-3.67,1.0,o-DCB:CF (4:1),CN,25.0,PEDOT:PSS,Ca,8.7,8.66,0.95,15.2,60.0