DA_mordred_pca,HOMO_D_eV,LUMO_D_eV,HOMO_A_eV,LUMO_A_eV,D_A_ratio_m_m,solvent,solvent_additive,annealing_temperature,hole_contact_layer,electron_contact_layer,PCE_percent,calc_PCE_percent,Voc_V,Jsc_mA_cm_pow_neg2,FF_percent
"[-6500.649961071898, 49632.65512974153, -368.33295381512517, 11976.805286565384, -12279.431241864686, 5952.538461339182, 2379.210520430493, -758.9180362402922, 372.90960091555735, -554.0117629561955, -879.3347240206376, 264.1834206662479, 2024.0328033455703, 430.7840584634555, -1171.217331724987, -397.89759717226195, -471.4114393247195, -895.5886652521028, 524.0236841385804, 16.670853224719735, 1069.3689839982762, -159.36077982612449, 619.8250794094384, -1440.2930118865659, 1207.0847296453624, -104.84862861413364, -473.7198825056506, -248.77857836418036, 306.0412198515619, 42.798343607839286, 12.311663074309102, 242.96488898446168, 127.35243773888288, 116.22170556537486, -458.18491941812067, -311.02076284087804, 58.05696439242007, -94.27703217951031, -9.696851511419164, -108.59043111640891, 61.98644003196606, 118.6815137406904, 27.19535270805966, 24.12367688374107, -70.99248536119507, 50.839639000151024, -14.347027001888087, 81.66883575136055, -39.93215298098713, 6.771535320420526, 37.42311098793034, -2.860696520631919, -39.30169797501066, 9.222602225054061, -45.68218469635543, -32.02278452743922, 2.393430730772881, 27.876786506280965, -22.982448959066076, -5.787553128459194, 10.082160256583347, 14.824191367586138, 20.56781843667366, -20.482830486404296, -1.702313653703861, 18.711215845174145, -5.56308692027784, -22.057954947233668, 0.7306929103196182, 0.06388275156659518, 21.207149983138798, 15.545476823503705, -8.895484350251413, -5.7073262511786, 5.975674709332537, 9.199636210195521, -11.660977839289025, 7.352287518279496, 2.4987901672202057, 5.490270735919623, -10.842751842239451, 4.9221486107725205, 5.294123807439334, -1.520275988810896, -7.605220293831778, 4.532856020180446, -3.4830442707294598, -3.8588921135855827, 1.625590356873019, -1.1533460863539098, -2.4341892239331315, -6.54911240585168, -0.9078530002536773, -3.2129822685736618, 7.0384276764700395, 8.036144934173372, 2.973756414148749, 0.345921829111802, -4.741655199985011, 0.48510784370302273, -0.7066185754114542, -0.4834963802351636, -2.738823665140381, -2.51422976290074, -0.22543995950833562, 1.4226315858876433, -2.062739603907186, 6.550474745155747, 1.5686833968327463, -2.4376791046885273, 1.5160995663580437, -1.1110741125495984, 2.4633855078533675, 1.4614133771413194, 2.285873072543808, 1.285029821804077, -3.1308831400973975, 1.3346849804924439, -1.430382503861928, -0.16131776237141082, 1.4579537845032444, -1.597007139931172, -0.8210787664749581, 0.10200303103056996, 0.12248418438348807, 0.16848910107811577, 1.3068658854514368, 0.44850071935069025, -35133.7948384405, -8229.633002095004, -12056.006677875394, 2789.4971387186242, -6137.391894299175, 347.2184125819449, 313.56897363838834, -763.0529003245208, -753.2713027045285, -463.7277561870353, 442.3965848250751, 144.76451622384843, -82.11980750356622, -241.51593372271438, -166.11661214239564, 161.0117266220481, 156.82867720048182, 45.04865333330787, -64.48252064437057, -23.748315205729725, 175.35196382208807, 75.91403661606171, -286.96291437231935, 32.43950758749915, 86.82629792655737, 17.332913738685377, -52.109964316334626, 147.96654517479746, -66.74616426635947, -30.131339361474026, -64.6842293414586, -20.401781789495175, -60.814467118058936, -33.126806506498966, -10.042152655421425, -51.312256336249625, 3.144366245462294, -3.71627624153237, 36.40376072528973, 0.4548085410526568, 8.77647477218483, -28.125389876423775, 2.49569238193056, -12.913454340121639, 4.879924205036842, -2.3377624767900205, -6.672954601090133, 6.202739337502919, -10.893634984359561, 12.032465269856662, -12.063043989303566, -0.34303639091355365, 5.016332629152714, 0.12086901313429266, -9.726503251923347, 6.137316418082435, -7.076062334661124, 7.3653218625323404, 3.5070409455817924, 2.301233891752652, 4.71929931757742, -1.926768238609477, -5.728496834707801, 0.05692591901005528, -4.227503980921206, 0.19035190488374848, -0.8161738905036682, -0.4714746073762517, 0.016165936440852846, 1.5320458160517845, -3.625921731256579, -1.3255082942715024, 1.0395488339674301, -2.629665545987187, 0.2524077098567754, -0.25955818195747327, -0.9738252465763915, -0.4436497764515863, 0.3498051835956417, -0.5126149363315342, -1.3513245580317377, 0.2982577901396226, 2.0905817811936993, -1.423686297008441, -0.5684747340003078, 0.06286388557579237, 1.556243536792186, 0.47664310848808533, 1.3381005503037402, 1.3274012761810585, -0.18103683328045683, 0.13158711423599634, -0.35216959119522606, 0.24205021276454275, -0.19716096928100413, 0.3411096425350699, 0.8983261097286253, -0.17492589746772325, -0.26859509238574053, -0.13780411398829884, 0.2481245213135157, -0.23952231622609954, -0.5478870274515413, 0.5484971724321479, 0.500298126046161, -0.06133469645540579, -0.3248140481935957, 0.313231347131103, 0.63465776568537, 0.5975958356568718, -0.21144062004099506, -0.6749983329678217, -0.32992632468938865, 0.3033181272449559, -0.12238950451054809, 0.06097724241096092, 0.2639722379565246, -0.2236154184593273, 0.06848499166746613, -0.30866773947200965, -0.13429432396519503, -0.2605157287139417, 0.0014308004863301527, 0.11389554910299449, -0.08035043575031331, -0.3428563737769905, -0.05785525732550667, -0.006029155567380151]",-5.2,-3.4,-5.574146341463415,-3.915,1.0,CB,DIO,25.0,MoOx,ZnO,8.58,8.58,0.89,14.63,65.9
"[-10481.610328170511, 55813.9611107988, 2822.6922152736665, 14229.1521665036, -13025.053639040416, 8400.06515074882, 3908.978737720799, -3229.5090565372675, -624.7692011906256, 435.7793861331529, 309.56951403914445, 1324.6228940426154, 1566.2322434636749, 405.1658994512277, -1655.46075526289, -1124.0005180396734, -1538.9163058662334, -1307.3044674636174, -568.4912837265754, 230.12167258229806, 1168.0547006428114, -24.866297220896627, 273.4143740371792, -1658.450781155862, 858.536935545815, -34.645317891494415, -726.722398094636, -112.28025199899668, 202.7228764354469, 320.7561439439629, -124.23909759411774, 195.94179752496845, 113.21209609983975, 120.03740176461852, -313.7758810694421, -236.39010938854273, 234.5510221598051, -257.19041566533747, -121.01066737612548, 25.073855576090963, -131.93371691654934, -64.97495524587765, -45.253353448100796, 50.17365691474123, -38.80856302217609, 45.80890816956878, -28.73507975718384, 116.87180140646495, -11.957216835389517, -44.47464985981097, -32.78329146664208, -31.574731996849863, -13.03842360799343, 62.66718194623053, -36.0234456895407, -27.082469224821793, -11.095074122386539, 30.139581964217562, -36.45217493883399, 14.656685971762613, 12.837307253373375, 6.034109854658453, 0.4218054256679977, -1.6320126403300748, 2.1779401622194143, 35.53237237670648, -18.789839058529566, -29.93458039143995, -11.826397342171859, -10.167839985364129, -22.87161041539646, 0.048432612258423546, 19.443144633679545, -13.304668684254949, -20.85302174058525, -22.12156202893668, 0.37047607642992375, -3.9856433859637477, 2.0857421962025127, 6.986716663016836, -3.9227109710282377, -6.835388525734629, 5.3553472263042465, -1.6550903184992691, 8.55222486152934, 8.63340427279853, 6.812628521784271, 2.611255291551629, -6.934450701505941, 0.02944231464527647, 2.7151110538704017, 9.918035466359221, 2.8775062428161924, 1.9254551527450454, -3.587749884477738, -5.264891089204191, 0.5886266879661193, -1.340279802528329, 3.5874672014283817, -5.606990885925831, -0.31678281532082053, 2.9901804629960482, -5.14325209143785, -1.1085033071440478, 1.7450473804932773, -1.7900817605309598, 4.104700228411147, -4.213060682673705, -4.118243330829074, -2.1319949158969074, 1.2915882044033111, 4.0788170386618035, -2.5311232482532193, -2.549244177366411, -3.374838361708683, -1.275186144409294, 2.8388945673395956, -1.961200542371877, 2.911170403314472, 2.1591258357056873, 0.4858704438117343, 1.2433764440737285, 0.5725603925299065, -0.46971295346595454, -1.9252088377340897, -0.32765153298979754, -2.068937890799141, -0.14875569021558732, -35133.7948384405, -8229.633002095004, -12056.006677875394, 2789.4971387186242, -6137.391894299175, 347.2184125819449, 313.56897363838834, -763.0529003245208, -753.2713027045285, -463.7277561870353, 442.3965848250751, 144.76451622384843, -82.11980750356622, -241.51593372271438, -166.11661214239564, 161.0117266220481, 156.82867720048182, 45.04865333330787, -64.48252064437057, -23.748315205729725, 175.35196382208807, 75.91403661606171, -286.96291437231935, 32.43950758749915, 86.82629792655737, 17.332913738685377, -52.109964316334626, 147.96654517479746, -66.74616426635947, -30.131339361474026, -64.6842293414586, -20.401781789495175, -60.814467118058936, -33.126806506498966, -10.042152655421425, -51.312256336249625, 3.144366245462294, -3.71627624153237, 36.40376072528973, 0.4548085410526568, 8.77647477218483, -28.125389876423775, 2.49569238193056, -12.913454340121639, 4.879924205036842, -2.3377624767900205, -6.672954601090133, 6.202739337502919, -10.893634984359561, 12.032465269856662, -12.063043989303566, -0.34303639091355365, 5.016332629152714, 0.12086901313429266, -9.726503251923347, 6.137316418082435, -7.076062334661124, 7.3653218625323404, 3.5070409455817924, 2.301233891752652, 4.71929931757742, -1.926768238609477, -5.728496834707801, 0.05692591901005528, -4.227503980921206, 0.19035190488374848, -0.8161738905036682, -0.4714746073762517, 0.016165936440852846, 1.5320458160517845, -3.625921731256579, -1.3255082942715024, 1.0395488339674301, -2.629665545987187, 0.2524077098567754, -0.25955818195747327, -0.9738252465763915, -0.4436497764515863, 0.3498051835956417, -0.5126149363315342, -1.3513245580317377, 0.2982577901396226, 2.0905817811936993, -1.423686297008441, -0.5684747340003078, 0.06286388557579237, 1.556243536792186, 0.47664310848808533, 1.3381005503037402, 1.3274012761810585, -0.18103683328045683, 0.13158711423599634, -0.35216959119522606, 0.24205021276454275, -0.19716096928100413, 0.3411096425350699, 0.8983261097286253, -0.17492589746772325, -0.26859509238574053, -0.13780411398829884, 0.2481245213135157, -0.23952231622609954, -0.5478870274515413, 0.5484971724321479, 0.500298126046161, -0.06133469645540579, -0.3248140481935957, 0.313231347131103, 0.63465776568537, 0.5975958356568718, -0.21144062004099506, -0.6749983329678217, -0.32992632468938865, 0.3033181272449559, -0.12238950451054809, 0.06097724241096092, 0.2639722379565246, -0.2236154184593273, 0.06848499166746613, -0.30866773947200965, -0.13429432396519503, -0.2605157287139417, 0.0014308004863301527, 0.11389554910299449, -0.08035043575031331, -0.3428563737769905, -0.05785525732550667, -0.006029155567380151]",-5.41,-3.6,-5.574146341463415,-3.915,1.0,CB,DIO,25.0,MoOx,ZnO,11.66,11.67,1.03,17.09,66.3
"[33453.56239528327, 247510.20994140822, -5467.365555278606, 46448.127591384735, -18338.351769162917, -18538.16976897108, 11547.807446026793, -2094.4825085628, -5295.1160940917225, -915.8138625432366, 2534.2585418032395, -2729.0368962063403, 2793.507919127028, -1595.3489821810435, 4161.354532837505, -761.7232490106376, 345.081710629966, 602.8550531805486, 895.1145623664826, -377.29962869869996, -1435.2137409399768, -545.2066872847538, 248.29448897559087, 798.3736925298706, -181.16734935119052, 841.8717122848634, -71.44955367096054, 369.1911605277289, -141.12915327314568, -158.3321614930545, -7.968219303705439, 306.7992780151796, -328.4440281215533, -84.79296096557363, 342.9646700200251, -54.34445086199912, 4.340399535357278, 42.10556472246799, 3.359523061751659, -18.69380935069705, -21.491141292141265, -119.70151600251631, -38.64099008341782, 67.88615493710836, 72.58094843203958, -42.85729064529414, -72.95664047714774, -26.815679365582128, 7.281190509396936, 10.306922784638118, -97.6711069210246, 31.811334775988428, -7.363636473432678, 55.33555730696287, -0.2932977055320407, 9.077336496481394, 1.2626423263257607, -46.77969766685359, -2.7811771339580673, 1.5350368771166814, -3.788886581137149, -13.583709318636807, 4.365156071559795, -4.912569242990401, -2.738653896297137, 9.143460890162544, -11.471778504301483, -4.305376348080216, -20.100229187377636, 9.825247361571016, 1.8725365123590052, -7.824973348387346, -8.038687077253556, 14.331951773723858, 8.414418729326826, -2.6973307070864507, 6.064470726958575, 6.698690536699765, -2.353107363413123, -7.315293827242442, 1.3459988471129236, 1.1143596099332456, -5.746869606170492, 1.4533789285116683, -0.5451473622828757, 1.0434294804140904, -0.9145720433203266, 0.9727633223402563, 1.0049200167054906, 3.4105896539523144, 6.350001016637748, 1.9475776983982485, 0.2607588994286232, -0.6681722665842269, 3.185696210117726, -2.980578631824528, 2.027731618412668, 0.10948432059865354, -1.6602793780072602, 0.003938744184608822, -0.8720816513476848, 5.079127888437792, -2.164673695741044, -0.1782678448334707, -2.3767684997998906, -1.7510228676962356, -0.5769267572105292, -1.7818318745722337, -3.2053488507257697, 0.7262052025679822, 0.4237825462728324, 2.2513935795007853, -0.2425232072710095, -3.030197673177895, 4.517462541131692, 0.5261904179710228, -1.215561484315046, 2.007132030885103, 1.54837831283524, 1.360897920098246, 0.27378292999496523, 1.3175827903559991, -0.16232184935502758, 0.12508639189516657, -1.821712479716325, 1.9489507876727714, -2.09847668624964, -0.49275816732134103, -35133.7948384405, -8229.633002095004, -12056.006677875394, 2789.4971387186242, -6137.391894299175, 347.2184125819449, 313.56897363838834, -763.0529003245208, -753.2713027045285, -463.7277561870353, 442.3965848250751, 144.76451622384843, -82.11980750356622, -241.51593372271438, -166.11661214239564, 161.0117266220481, 156.82867720048182, 45.04865333330787, -64.48252064437057, -23.748315205729725, 175.35196382208807, 75.91403661606171, -286.96291437231935, 32.43950758749915, 86.82629792655737, 17.332913738685377, -52.109964316334626, 147.96654517479746, -66.74616426635947, -30.131339361474026, -64.6842293414586, -20.401781789495175, -60.814467118058936, -33.126806506498966, -10.042152655421425, -51.312256336249625, 3.144366245462294, -3.71627624153237, 36.40376072528973, 0.4548085410526568, 8.77647477218483, -28.125389876423775, 2.49569238193056, -12.913454340121639, 4.879924205036842, -2.3377624767900205, -6.672954601090133, 6.202739337502919, -10.893634984359561, 12.032465269856662, -12.063043989303566, -0.34303639091355365, 5.016332629152714, 0.12086901313429266, -9.726503251923347, 6.137316418082435, -7.076062334661124, 7.3653218625323404, 3.5070409455817924, 2.301233891752652, 4.71929931757742, -1.926768238609477, -5.728496834707801, 0.05692591901005528, -4.227503980921206, 0.19035190488374848, -0.8161738905036682, -0.4714746073762517, 0.016165936440852846, 1.5320458160517845, -3.625921731256579, -1.3255082942715024, 1.0395488339674301, -2.629665545987187, 0.2524077098567754, -0.25955818195747327, -0.9738252465763915, -0.4436497764515863, 0.3498051835956417, -0.5126149363315342, -1.3513245580317377, 0.2982577901396226, 2.0905817811936993, -1.423686297008441, -0.5684747340003078, 0.06286388557579237, 1.556243536792186, 0.47664310848808533, 1.3381005503037402, 1.3274012761810585, -0.18103683328045683, 0.13158711423599634, -0.35216959119522606, 0.24205021276454275, -0.19716096928100413, 0.3411096425350699, 0.8983261097286253, -0.17492589746772325, -0.26859509238574053, -0.13780411398829884, 0.2481245213135157, -0.23952231622609954, -0.5478870274515413, 0.5484971724321479, 0.500298126046161, -0.06133469645540579, -0.3248140481935957, 0.313231347131103, 0.63465776568537, 0.5975958356568718, -0.21144062004099506, -0.6749983329678217, -0.32992632468938865, 0.3033181272449559, -0.12238950451054809, 0.06097724241096092, 0.2639722379565246, -0.2236154184593273, 0.06848499166746613, -0.30866773947200965, -0.13429432396519503, -0.2605157287139417, 0.0014308004863301527, 0.11389554910299449, -0.08035043575031331, -0.3428563737769905, -0.05785525732550667, -0.006029155567380151]",-5.24,-3.42,-5.574146341463415,-3.915,1.25,CB,DIO,25.0,MoOx,ZnO,9.11,9.11,0.87,16.21,64.6