DA_mordred_pca,HOMO_D_eV,LUMO_D_eV,HOMO_A_eV,LUMO_A_eV,D_A_ratio_m_m,solvent,solvent_additive,annealing_temperature,hole_contact_layer,electron_contact_layer,PCE_percent,calc_PCE_percent,Voc_V,Jsc_mA_cm_pow_neg2,FF_percent
"[-105631.73783275932, -74572.73247403272, 4329.753734020427, -2341.4243576849567, -5555.485216633641, -172.87819728700106, -798.6979620852667, 856.8010146047068, -1780.8026309386028, 649.5717848685752, 65.62447326392157, 388.30062073400836, -353.1258883999071, -137.697950651705, 31.52142203119479, -106.39355730444561, 81.98057692092414, -63.14138686604906, 66.8688432765725, -31.850017336689234, -14.562814664564094, -114.9941249091529, 19.27422754978045, 6.86920436049806, -13.362968611123335, -88.88424698589336, -9.680549433746734, -6.256532059762719, -19.287322586292646, 30.85187752382363, -0.060728621664203786, -1.7204165771485123, 18.096287928493183, -5.394264557244732, 40.036620565000476, -33.18107886987201, 2.1644049971745574, -3.5496157331860445, 9.702406188567533, -7.574832588501394, 9.796433451870143, 2.157829321761511, -3.1218789726135014, 6.6756247366353705, -7.1588684345745435, -6.697268175137552, -1.4052090508045652, -1.9646060063565116, -5.4204105421624575, 3.32941670679557, -3.8499636318233144, -4.615352531498566, -0.07975953344401887, 3.391194367932755, -4.106358123047258, 1.501503218822819, 0.9563824343184066, -2.6973013366915453, 0.8798263076499495, -1.2664639901547048, 1.2677471291641744, 0.13775840341868673, -2.0083004655011223, 2.233635675897844, -1.9092080674585787, 1.3281780039048954, 1.7708225501106938, 0.11723884380987926, -0.7217945654510771, 0.020674104910288094, 0.6321921645490995, -0.12750860712933587, -0.7324806057772388, 0.387690081710673, 0.5704773577055064, -0.5561048571084157, 0.13303415142318897, -0.39533728660630274, -0.19314666767595423, -0.17136554860633169, -0.3105600644218782, 0.09227497024608411, 0.3640581811437116, 0.12456153887661969, -0.4900314009409783, -0.2105542507325282, -0.11287961723428896, -0.4896110545300445, -0.2576249538547408, 0.020036158749878297, 0.19004174677945684, 0.43512588848888356, -0.15984926722186188, -0.03699898168409543, -0.16184812575650298, -0.018640178199959223, -0.06970965394751483, 0.02644608400954951, 0.4184249457529603, 0.06710147780425979, -0.1455202420919477, -0.027435290436191195, 0.055771972451445606, -0.09475802435058256, 0.24207868559446766, -0.05282116924259128, -0.1882724966860181, -0.05346045629421603, -0.10831494984240475, -0.0036262226167114164, -0.026380022030597416, 0.020118181288705017, 0.03512820925391846, 0.029024371883522804, -0.050134402663047695, 0.01941571781524054, 0.00820689833365762, 0.059280726425585684, -0.07718365209846922, -0.05673269250273272, 0.03097365628437565, 0.0007247489018915587, 0.008388415516517256, 0.019782146741892603, 0.003491413958400358, 0.005668303566913835, 0.008251200563019978, 0.015433351818131769, -10760.899674900214, 23839.986671134247, -45834.89958811848, 1534.2148394438645, 10494.56880405288, 8792.830416947723, -604.9577789209725, 2254.552934943166, -1570.8114847532647, -4466.606491494766, -297.542075151714, -3653.734003324214, 3578.597076825721, 3346.6626286652922, -1570.6274597417387, 1297.33722132189, -890.2874677937526, 770.9591932566211, -654.4658612078788, 710.710991046859, 1205.1983006533733, -423.4334025348645, 236.6797096156975, 165.87538634702435, -305.80293573048186, -207.87799881823355, -651.2534928186105, -439.04413852278634, -495.44965861127, 155.33503109160097, 49.99770398333732, -1.8005616140944198, -577.0332358764198, 177.23869632979017, -35.013112095065935, 207.71290527902335, -328.8375128665838, -176.05413355843297, 69.66001174445604, 25.21911933682901, 213.02375919758572, 78.38002787787073, 110.94232773356575, 160.17814680547983, 51.86488831136286, 71.57660919478641, 142.92517694242895, -82.81018358231834, 44.40854167138011, -50.00572522970958, 140.0142729742014, 55.12919839621807, 19.951545754148654, -76.2014594561359, -12.402283399718357, -12.20326143171259, 40.17991106060596, -63.90657149440176, 3.9455740978296774, 9.178026942640344, 26.418033254662156, -24.68280698780288, 36.34788075978395, -18.04803457601566, 8.792318268065813, -1.7762365611650575, 76.9110263405971, 1.4698339625830013, 6.04806860147779, 9.369682342198331, 1.3515911415683846, -11.702783334932304, -20.197801392902974, 17.96366483012712, -4.7719777839819635, -1.9517846642145429, 2.971909811442236, -30.786927623231726, -13.54549795484457, -11.76543198877284, 16.289386577020636, -9.817421956601606, -16.948406122179662, -15.422161885062906, -3.206660235593745, -17.60835780149169, -7.14501832563861, -3.1513622999470385, 6.380001436294313, 11.044439058905063, -12.677572715392738, -17.061325898923357, 1.7430848947638111, 3.2274673197463315, 5.714453143318778, 7.393092059603044, 8.421950135197704, -0.33980095996603765, -1.4982028046916824, -0.7048831272013985, 3.377268682433203, 0.8052697759301772, -0.49286843431593397, -0.9045932132681855, -5.838760668242799, -1.135713109389247, 4.897499558097742, -1.965011614726592, 0.732712359774947, 4.478606636354726, 2.9543465628007226, 4.470014605267416, -5.454277296427954, 0.04202775776142431, -2.757428682378079, -0.7979737678340513, -1.227596746459561, 2.1221834638719734, 0.8522280443212686, 2.186863601037551, -2.5381331338408515, 2.955748596781348, 3.6497663255781685, -0.2592621764844729, -0.10168631939925277, 2.063717206476647, -1.3719469482702422, -3.0771414325569744]",-5.204782608695651,-3.5391891891891896,-5.26,-3.96,0.588,CF,DPE,25.0,MoOx,ZnO,10.2,10.16,0.73,20.83,66.8
"[-107423.09370752568, -75573.72491442433, 2691.8991779816492, -4359.288094612307, -3859.7433060644207, -1847.8519273013371, -1889.0743954606046, 1536.351734759291, -2038.0020710130102, -250.9250961308735, -579.2097281665674, -1138.371813353039, 204.28165435409824, 1120.5263493763962, 317.06596906400245, 630.8686331437411, 889.6374051675624, -388.76071594011614, 265.08924938685357, 87.46695323995448, -290.4277077541242, 118.52734543177048, -21.841302941700178, -79.92039500364967, -106.80509476698319, 390.7242110606642, 95.91012287047195, -154.9672961555753, 45.522833100910816, 78.23126669788178, -159.1592313468504, 85.6466254427508, -164.79687745355793, -34.80586067308105, -145.24623919134763, 179.33804085231037, 10.870623860225791, 38.91769152893053, -101.24106298447285, 44.871537325894835, 55.99791494195627, 51.015982579172885, 66.35246456262726, 7.7204639955288314, -18.694005560727533, 38.41402220616827, -17.47776737016899, 36.31767454703578, 21.33878639572856, -58.52589480573931, 9.369963856855833, -16.767002774809704, 9.689020839144938, -5.982688485175302, 4.133014765113181, 36.426301770686116, 7.540154096546431, 27.53704738719575, -17.957480001463566, 16.557684498774563, -18.69000892493894, -7.08616041952439, 14.378467751852185, -12.217751194587123, -2.6161689295191373, -5.837523995624508, -2.1490044295476594, 10.056334922144082, 1.3501069728939399, 0.05224351803807892, -16.535605581159224, -5.6702918026516045, -3.8484012473147304, 4.929540958358878, -6.355948922614054, -3.800236085371594, -2.6256962495340304, 7.507438958084677, -3.157766304370318, -2.518426304965004, -2.749228669282047, -0.6468479501061353, -2.80624798789799, -2.2833956293754163, 0.28996019696587894, 2.3887575586119, -0.7819702132318955, 3.0193525969544197, 0.7428021200144546, 0.8279010023571232, 2.95785631266628, -2.205478006645592, 1.8411136289687953, 0.7345581680427404, 2.439750641051603, 0.36041177710603023, 1.30115670516924, 0.03257631952655515, -0.6483428695408122, -1.6363495221230844, 0.3118005621253772, -0.7354061353540793, 0.3136123038264351, 0.4911308715796139, 0.37365649741267415, -0.5496605495964104, 0.23560728430111055, 1.2528802085125612, -0.9492348233973082, 0.1705445119902258, 0.2171179919947761, 0.08546418885482687, -0.33474926070695243, -0.8540277896909174, -0.2842139993798014, -0.4709718253734998, 0.16880203515812653, 0.4692524371131013, 0.0006185463064909413, -0.18036026895958912, -0.2853763147508488, 0.0471983352172991, -0.3432022814872626, -0.09027095934164464, 0.12916310238986028, -0.2916012655567499, 0.18362146879040253, 0.1110090588083068, -25916.04883369151, -2275.4760869171346, -9194.873789195784, -6708.319207450144, -3366.335045699063, -4180.46998571905, -1860.3438660685563, 860.1783806415149, 2026.7953578977517, 2633.1079370174107, 3466.5744120076038, 981.639372657984, -700.6709721967616, 2013.1532304234993, -117.13540918982015, 77.00474304292767, -280.50139114201426, 1158.1880510301628, 395.01970935965664, -367.82351468260015, 64.85833715462209, 91.10689725962341, -263.3285240897302, -292.3007472965677, 259.48563070034015, -23.913643797019233, -413.2790011762724, -183.8613596308216, -94.60631330645242, -263.96263636876165, -129.546267583344, 196.6033894342787, -143.06204531725461, -185.9617111473099, -53.48534722066596, 80.81387950297896, 37.75447522209312, -5.016710115486674, 103.50288207251721, 56.029790538274725, 104.39634841224587, -68.81873285457402, -17.1348767985894, 42.0627290908259, -16.260879220812424, -71.86793368354225, 55.78568190673844, -5.914308976384309, -3.8299707216112857, 12.381196684184955, 34.901572199490445, 35.80561430450651, 16.77956341029034, -1.5518201841060826, -14.703235251050899, 4.659497633152601, 37.016803594382075, -22.316709157325775, 14.206086582531462, -9.491696762637957, 16.505493474985222, -0.9428072166440042, 12.308247194730301, 46.80139392217395, 11.09488563312037, 9.170249526992981, 12.103835290316239, -12.948716789977109, 9.95247687936878, 8.497884892017554, -1.3230205983570267, -14.316604051425008, 5.382887119474555, 6.285811628715367, -1.5288775874065694, 2.37180855000377, 10.74924746976707, 15.336305602085528, 6.316706564478217, -7.771617681792531, -0.0548001003266778, -7.530550807988083, 2.7658809423291273, 2.1973031173780697, -8.262200521800475, 3.13499510288547, -5.478278025049487, -4.2555486547643895, -2.2070109967416447, -6.820045376815695, 2.6800623513566846, -2.678663921077961, -2.1958097727576895, -3.0879908327669163, -2.9147460105353904, -1.8054559165029214, -4.152690581912634, 0.6257753690354122, 0.5577014933211049, 1.6443596868303967, -0.652042543775492, -2.849183118620477, -3.3226615629757337, -1.467543017391069, -0.21873389928521814, -4.081887124034323, 1.6891420069305532, 0.7095133213700578, 3.1971308034570605, 2.270973160487819, -3.5033443105347293, -0.8315321045560218, 0.9403643062071083, -3.248543833544948, -0.9615816023718646, -2.2636876033580924, -5.762975116336683, -0.029645255375946533, 1.5216950758169663, 0.06641182814953162, 5.283718978988199, -1.5901516937723084, 2.391150022015417, -0.5204135576129647, -0.011876780724466629, 1.7583430049889648, 0.5861176147036264, -0.19938121675059506]",-5.128,-3.268,-5.43,-3.85,1.2,o-DCB:CF (6.667:1),_,25.0,PEDOT:PSS,Ca,3.93,3.92,0.9,8.33,52.3
"[480970.02105998964, 5341.51312288338, -45765.143679126515, 867.8665825411135, 4237.622135826926, 3871.7942335561247, -6317.949773792045, 2262.8129465491074, -43.61334805744309, 202.54046413605647, -1161.0499646788603, 783.8494549297252, 527.0198602848491, 1013.7360144328932, 967.8884793796708, 704.0683157311432, -485.30510638200053, -697.6200939185659, -425.1786548222799, -82.72997384202864, 311.8019000659509, -617.8261396234908, 446.84031011889283, -239.10352177232477, -550.3862755066153, 121.95813658049457, 284.6115200373539, 533.4083132549858, 31.47030740298976, -150.17214922746803, 99.83719995656978, 236.44341516924817, -93.09496616279785, 2.8139149924317977, -5.948126607006316, -188.1563897207492, -80.37179247697935, 92.01274077555641, -65.12796967273741, -84.89296742192967, -21.286664276718682, 14.773875756862566, 27.301227349354804, 104.69232975603845, 24.853574093441438, -18.44047065526921, 8.093369388935386, 41.642345291103055, -38.294822582007995, 43.900448367621465, -0.9288849287741812, -14.252379751989242, 30.283086624152112, -7.327769162169616, 28.69866253094075, -11.478601043432235, -11.895783011139372, -11.825785117852078, -11.103435360353373, 11.541009179064218, -1.2959358099585572, 1.8918420285685897, -13.904438612532374, -8.60112214482254, -13.70860988971895, -3.422881814593321, -0.7397191675525505, 1.1515193191945556, -1.1756332056043135, 9.410700025228502, 0.24495413865936833, -0.9070151399105768, -4.718868614961428, -7.335484007673887, 3.551821305958825, 4.580655049022013, 2.9092120308517337, -3.5511349954155955, 0.5691664627499313, -6.49942509376929, -4.243548532255957, -2.757048490892558, 1.9953343782378532, 4.593283278908061, -0.30269421209501246, -3.4474304964650386, 0.9683889715662968, 6.6141366219437145, 1.6433201399478996, 2.389692069667973, -3.795406629774213, 1.1494726226496503, 3.698510919687969, 1.9792126254177944, 6.38437232340374, 0.6847716265230162, 1.807508488545123, -2.5528783041209664, 2.430409260065204, 1.4905584499324478, -0.10014008323267376, -1.0610460276092137, -0.9291520099475044, -0.40936315697947734, -0.8821192139697658, -1.0049308658694152, 1.2562343975289743, -0.10388850631843027, 0.9382378351756282, -0.17082152173648613, -1.887693382120025, 0.2369902069514449, -1.2660508744468402, -0.5255283344139077, 0.10441190478614715, 0.4805863657850331, -0.3979317052349405, -0.7688749342862187, -0.17623542552795257, -0.27788098791618565, 0.26581109222711774, 0.2697064257069375, 0.0327964315928142, -0.35303542116334086, -0.48599873055219334, -0.9297547026282373, 0.06966186074217084, 0.43962303900926614, -81770.87986702674, -173447.29954723516, 30220.16571270577, -14413.153048616274, 3543.3226799563945, 3332.106948102589, -903.4877254842395, -570.0443827962554, -83.40824220329546, 3680.818716283854, 75.67637746841501, -504.20819355588674, -791.9469606026769, -2557.5205467061633, -2616.2272571478507, -522.5481698896642, 263.4172165108456, 515.3785456126006, -1375.4076746094652, 613.1598517717497, 421.4149493124737, 1077.789632419119, 1503.4756170419182, 136.639057237276, 100.79909153696417, 1004.131453130881, -97.50050792471006, 27.830369253582816, -375.17735244256914, -550.535659944328, -234.72903138361727, 298.39482767837694, -429.0569543341041, 352.95643475961106, -264.1658079366753, -13.688062266060982, 136.42323400987016, -84.12761993390768, -10.067157906916776, -188.6241713885131, -134.37327649599354, -47.87659790657045, 197.07217765720702, 244.79231656771063, -132.13670872232183, -65.79547631335207, -16.38861813425794, 25.394440318490894, 110.57455530718462, -53.68438811790031, 133.16755335670882, -45.87225406374961, -12.362392158387763, 80.21615973521043, -23.26074888870113, 15.594588905407221, -33.7588876807373, -61.33244832590779, -4.638354589566745, -72.52924286517475, 6.89140102384232, -61.93758592792429, 17.099488341940088, -5.6577278848360635, 35.44223420995121, 28.023725033281558, -35.737926229986385, 24.605645489383456, -22.687030151613936, 13.6164454726092, 10.489943945350191, -15.06753242512089, -24.60900465873297, -10.66373441756415, -7.090305589607954, -5.947534999026146, -3.361483303992401, -14.951756790096788, 17.817867179448882, -6.503001677785818, -1.3535481582296338, -10.060779629811933, -16.324249965760245, -4.190377381311322, 1.399427834711048, 30.001876979996055, 10.112659651022604, 4.90542121882909, -5.821966665016717, 2.113863472189241, -2.1392146705678385, -17.234897630723864, -2.4892223633901267, 2.9308725639488102, 5.511931107565445, -12.453157310386636, -9.160771985421363, -8.835869064964665, -5.386457322771147, -0.4804791278099856, 6.940805550944326, -6.013692416525917, 3.5263287974765305, -0.5212780073970649, 13.154936567458435, -4.561914186945934, -4.429661557629245, -3.7245008943997036, 6.547704176143569, -0.26085191547321784, -4.472863431949008, 3.819472926074738, -2.872714909791256, -1.0648987667965883, 5.866864218753875, -2.8091355304112966, -0.6025428747155388, -3.5933262021024746, -2.0839126447151983, -1.7516964675366893, -0.5618339905322403, -1.7313321334115717, -2.2289541097523795, -1.296320494138719, 2.2803537450240263, -1.90443092123758, 2.7513164458622725, -1.8252658495920073]",-5.34,-3.7,-5.65,-3.62,1.0,CB,_,25.0,MoOx,ZnO,5.0,4.87,1.05,10.3,45.0