DA_mordred_pca,HOMO_D_eV,LUMO_D_eV,HOMO_A_eV,LUMO_A_eV,D_A_ratio_m_m,solvent,solvent_additive,annealing_temperature,hole_contact_layer,electron_contact_layer,PCE_percent,calc_PCE_percent,Voc_V,Jsc_mA_cm_pow_neg2,FF_percent
"[-113112.0221877825, -128040.17814553897, -10298.628999373548, 3432.733628547574, 8973.419698991387, -3439.282848851566, 3781.954798850272, -829.6176407827634, 1085.3982123472952, 550.4456547111608, -435.8864607518108, -710.2243801656157, 1326.1626490602139, 8.665554309145136, -418.74269954022566, 187.45956881819745, 121.28409340748124, -4.298184849417794, 8.490690881116162, 52.913455571291934, 87.8658439058351, 43.51987937221628, 44.34062644746041, -49.48592701393579, 33.90433203557939, 4.676946288832141, -8.072828067571379, 10.567251849407967, -111.51899092106515, 28.525996512887673, 100.06773607887192, 12.062822784303606, -5.263110840715456, 7.512175011148145, 1.3785293027879106, 16.635643035520957, 4.039764278740535, -24.845372606161163, -22.45639579757742, 5.826741130519196, -0.7521496402381729, 12.53019855668316, -4.796028348520849, -8.538919188446641, 0.6386535221417375, 0.28586521885279126, 3.6235228381428186, -2.3848029517721017, -2.8923507347754054, 4.7855121583618825, 4.964071798130007, -3.784341510985911, 2.078751210970445, -0.29178313050513793, -1.7735955457794503, -3.129511596315538, 1.0268372421283374, -6.771806284949676, -0.36009360913607225, -0.2885819863777215, 0.7901843974181446, -4.113908987537911, -1.4204402500640185, -1.319936024894119, 0.9505850971635255, 0.3919987624149357, -1.1826527991339901, 0.25278811590131767, -0.10244841765984347, -0.06963895121972996, -0.3177515931384107, -0.252237779743524, 0.3418882282524356, -0.025334246562977114, 0.6085323469659869, -0.08140436503745718, -0.052060392777136144, -0.37716527456960947, 0.622708357653387, 0.7512702289248097, -0.18664277121496298, -0.4686124080250025, 0.11033475969473727, -0.17570642990008523, -0.01191175014561452, -0.5637582343619982, -0.15994847323332984, -0.4211786166219582, -0.07485781839410688, -0.23597185487598793, -0.10873839156025156, -0.12014790117991936, 0.17783780040360142, -0.16002430739202889, -0.04013287387633824, -0.3283820317790074, -0.14723447861628003, -0.013208994816466202, 0.10783506653254449, 0.02054895260968026, 0.0038103610396120757, -0.03785315965532643, -0.013199411282162288, -0.07276953001481701, 0.05509625405750462, -0.04625759139159413, 0.04027683863420606, -0.0025516021335834083, 0.03001469427361414, 0.09321320428330893, 0.06018147875735025, -0.03890482007976459, 0.055154607055641236, 0.0315222130303745, -0.0697597739780349, -0.024930229612809995, -0.01225032381139357, 0.015968003371716222, 0.02773925890596729, 0.0066110138903283655, -0.025875302652229593, 0.0026188898131849214, -0.006174358951955394, 0.01351968740192433, -0.0167749891402309, 0.027379330332195195, -0.004039592793215974, -0.00318420795111507, 76199.82249650327, 123677.0399041682, 15948.585706788872, -5932.399897478965, 6679.173579357446, -2009.419677106722, 1845.5371389778702, -789.189691681122, -1879.2377595025978, 3901.586951527638, -2941.3704024635626, -2415.2188822247713, -797.3473615632183, -4850.973138113108, -1011.3144525432681, -278.46306745194397, -1948.1463424214305, 2827.217555682368, 120.70095395852778, -248.54640041962574, -334.5062704512384, -576.0547137686224, 759.9997846465018, 414.2986148482971, -979.7214316738609, -519.4066627483791, -508.2298710362688, 809.8416730969162, -1082.286149996021, 954.5793615477653, 159.65558161408103, -713.0472005568997, -377.1969109243222, 240.1350843201244, -179.83081544212016, 24.249806563672493, 140.78116615213685, 240.2249296463903, -267.2620302388321, -135.83256085430378, 149.17430310759866, 265.82788813496234, -101.37360958300292, -52.91613177441913, -15.554753226740445, -25.700464831791137, 27.526214283788903, 82.45905240140013, -92.61727395444507, -52.54003326186833, -122.85340722165242, 134.62963304657762, -119.9774580324518, 13.70311525539816, 58.622320983406894, -45.37928783743453, -21.512917421137473, -48.671995689351036, 21.481639486718905, -31.61837359231953, -76.53467815276788, 62.323712733375636, -54.33974978099724, -2.506333983304387, -26.47528551207847, -8.641855235477705, -9.231534635646291, -44.52857149348053, 10.529911992713311, 22.93499224711492, 11.162390055364071, -35.86173654551496, 14.466729483085047, 23.773252881437607, -17.136384273372602, 7.665805617446125, 25.38961260376442, -15.510134036909221, 20.523890777058, -18.131310962460773, 11.838135967818527, 10.506771939606963, 6.971548251439625, -4.920023300467193, -3.7675043964751183, -3.0692493250634314, -8.40942677172411, 4.848210218080283, 2.128572725429036, 1.9966464918159659, -3.2597895542652537, 0.007897027469809359, 4.684687874168631, -3.9865707090409757, -5.453673933844783, -3.2459068652755434, -3.8424717211873443, 2.6374470426569587, -10.76291387837835, 4.966597745031578, -0.7306992799197403, 0.3894357805938533, -5.7724559425638535, 7.4371687610839805, 3.9700513964928916, 2.794138169314831, -4.202504298989009, 2.431672686233675, 0.7354378251683826, 6.920775090158706, 0.32941578670868665, 2.3068148910358204, -0.8467255572322898, 3.567496868292018, 2.4002485912898788, -0.1333395524725418, 3.128083364244958, -3.6525580370212545, -4.579395541594629, 0.36684750628510443, 1.0012881017414763, 3.355773597503338, 0.9642090074873462, 1.2740783605730535, 0.43367926107194776, -3.5694559713688463, -0.39563551542663333, -0.5238515934046504]",-5.057777777777777,-2.989444444444445,-4.98,-2.81,1.0,CF,_,100.0,PEDOT:PSS,Ca,1.04,1.04,1.34,1.65,47.0
"[-113112.0221877825, -128040.17814553897, -10298.628999373548, 3432.733628547574, 8973.419698991387, -3439.282848851566, 3781.954798850272, -829.6176407827634, 1085.3982123472952, 550.4456547111608, -435.8864607518108, -710.2243801656157, 1326.1626490602139, 8.665554309145136, -418.74269954022566, 187.45956881819745, 121.28409340748124, -4.298184849417794, 8.490690881116162, 52.913455571291934, 87.8658439058351, 43.51987937221628, 44.34062644746041, -49.48592701393579, 33.90433203557939, 4.676946288832141, -8.072828067571379, 10.567251849407967, -111.51899092106515, 28.525996512887673, 100.06773607887192, 12.062822784303606, -5.263110840715456, 7.512175011148145, 1.3785293027879106, 16.635643035520957, 4.039764278740535, -24.845372606161163, -22.45639579757742, 5.826741130519196, -0.7521496402381729, 12.53019855668316, -4.796028348520849, -8.538919188446641, 0.6386535221417375, 0.28586521885279126, 3.6235228381428186, -2.3848029517721017, -2.8923507347754054, 4.7855121583618825, 4.964071798130007, -3.784341510985911, 2.078751210970445, -0.29178313050513793, -1.7735955457794503, -3.129511596315538, 1.0268372421283374, -6.771806284949676, -0.36009360913607225, -0.2885819863777215, 0.7901843974181446, -4.113908987537911, -1.4204402500640185, -1.319936024894119, 0.9505850971635255, 0.3919987624149357, -1.1826527991339901, 0.25278811590131767, -0.10244841765984347, -0.06963895121972996, -0.3177515931384107, -0.252237779743524, 0.3418882282524356, -0.025334246562977114, 0.6085323469659869, -0.08140436503745718, -0.052060392777136144, -0.37716527456960947, 0.622708357653387, 0.7512702289248097, -0.18664277121496298, -0.4686124080250025, 0.11033475969473727, -0.17570642990008523, -0.01191175014561452, -0.5637582343619982, -0.15994847323332984, -0.4211786166219582, -0.07485781839410688, -0.23597185487598793, -0.10873839156025156, -0.12014790117991936, 0.17783780040360142, -0.16002430739202889, -0.04013287387633824, -0.3283820317790074, -0.14723447861628003, -0.013208994816466202, 0.10783506653254449, 0.02054895260968026, 0.0038103610396120757, -0.03785315965532643, -0.013199411282162288, -0.07276953001481701, 0.05509625405750462, -0.04625759139159413, 0.04027683863420606, -0.0025516021335834083, 0.03001469427361414, 0.09321320428330893, 0.06018147875735025, -0.03890482007976459, 0.055154607055641236, 0.0315222130303745, -0.0697597739780349, -0.024930229612809995, -0.01225032381139357, 0.015968003371716222, 0.02773925890596729, 0.0066110138903283655, -0.025875302652229593, 0.0026188898131849214, -0.006174358951955394, 0.01351968740192433, -0.0167749891402309, 0.027379330332195195, -0.004039592793215974, -0.00318420795111507, 89288.0627349929, 150676.0435000151, 8401.64672769056, -13073.206535446916, 8274.513243894005, -423.95655601305464, -4691.510942589968, 2074.3489283815115, 1530.4204426872504, 6364.386925947778, -6257.601715649336, -3078.3538819948826, 133.53587138559806, -4211.562822533781, -2957.311252703327, 401.7087942685366, -935.6356630806326, 2409.334472321016, 948.4056902920956, -111.21348151962684, -984.2179552088191, -568.0735195790589, 749.3665207463157, 221.64338044172428, -936.7523716296805, -270.2276161198532, -345.9533846056828, 1104.3693973031943, -1024.6435599568806, 600.0708450752664, 168.9834775267045, -174.7974773110999, -495.6820090880306, 632.175942460806, -268.819327604314, -314.156010951403, -27.54253575982193, 132.9141819411572, 81.76298532607908, 186.22476543394663, 171.13334642929746, 18.130762899898798, -164.9613116055839, -87.71898094947525, -216.14176868085005, -33.34300800552373, 18.233414944313154, 120.80971696947051, -62.87718862485315, -1.491058822270304, -114.94156372729582, 12.209109869403676, -115.07524124273834, 21.397945248600934, -29.30826346081335, -57.55033278533227, 69.06053364015256, -4.0922119331928, -50.24200153858328, 15.667697596857465, -45.211248934066944, 48.597492183169365, -7.299775162822243, 9.578634325316457, -60.076649820038085, -19.777801006958235, -32.20009882341647, -8.236651497363866, -1.4097763531544114, 30.40370316388848, 11.00800273386372, -11.146532638529127, -12.581869723924456, 3.3931035244869463, 3.364341918483099, -13.159540033535507, 6.570735472046238, 1.2620019151288773, 19.979536027633685, -1.1007687507328967, 15.355252532054553, 8.425292517494924, -6.433353945430774, -7.16754417514457, 7.795558167421461, 3.302590984920812, -6.745914031545439, 10.52401271651705, 1.669870734571898, -0.8247026837772715, -8.806557016892825, 10.634677883753227, -8.93370088050601, 8.422336727667528, 0.3967969672843452, 4.813235583170318, -0.3789654070969277, 1.5638861253265972, -3.09876332128135, 11.670615783323626, -2.4393540644807814, -2.143949444210392, 6.6756650614115465, 1.7057993834252505, 2.8238976470196917, -3.8194895310232795, -1.015612877195803, 6.7751780115482525, 4.305118100577225, 0.9937037814344762, -10.089611612577912, 1.7449722299658674, -2.53413075660589, 2.724466403230508, -3.775425089093897, -0.9135670823239082, -7.298614036752056, 5.763719077044211, -5.9161999862007235, -0.15235448311311472, 0.39128855309546906, -6.794761871164743, 0.35622053421046473, 2.4753940351524193, 0.839565421855486, 0.26215513968900694, -0.7014465886427388, -4.626972119131338]",-5.057777777777777,-2.989444444444445,-5.21,-3.18,0.5,CF,_,120.0,PEDOT:PSS,Ca,5.31,5.31,0.94,8.56,66.0
"[-105631.73783275932, -74572.73247403272, 4329.753734020427, -2341.4243576849567, -5555.485216633641, -172.87819728700106, -798.6979620852667, 856.8010146047068, -1780.8026309386028, 649.5717848685752, 65.62447326392157, 388.30062073400836, -353.1258883999071, -137.697950651705, 31.52142203119479, -106.39355730444561, 81.98057692092414, -63.14138686604906, 66.8688432765725, -31.850017336689234, -14.562814664564094, -114.9941249091529, 19.27422754978045, 6.86920436049806, -13.362968611123335, -88.88424698589336, -9.680549433746734, -6.256532059762719, -19.287322586292646, 30.85187752382363, -0.060728621664203786, -1.7204165771485123, 18.096287928493183, -5.394264557244732, 40.036620565000476, -33.18107886987201, 2.1644049971745574, -3.5496157331860445, 9.702406188567533, -7.574832588501394, 9.796433451870143, 2.157829321761511, -3.1218789726135014, 6.6756247366353705, -7.1588684345745435, -6.697268175137552, -1.4052090508045652, -1.9646060063565116, -5.4204105421624575, 3.32941670679557, -3.8499636318233144, -4.615352531498566, -0.07975953344401887, 3.391194367932755, -4.106358123047258, 1.501503218822819, 0.9563824343184066, -2.6973013366915453, 0.8798263076499495, -1.2664639901547048, 1.2677471291641744, 0.13775840341868673, -2.0083004655011223, 2.233635675897844, -1.9092080674585787, 1.3281780039048954, 1.7708225501106938, 0.11723884380987926, -0.7217945654510771, 0.020674104910288094, 0.6321921645490995, -0.12750860712933587, -0.7324806057772388, 0.387690081710673, 0.5704773577055064, -0.5561048571084157, 0.13303415142318897, -0.39533728660630274, -0.19314666767595423, -0.17136554860633169, -0.3105600644218782, 0.09227497024608411, 0.3640581811437116, 0.12456153887661969, -0.4900314009409783, -0.2105542507325282, -0.11287961723428896, -0.4896110545300445, -0.2576249538547408, 0.020036158749878297, 0.19004174677945684, 0.43512588848888356, -0.15984926722186188, -0.03699898168409543, -0.16184812575650298, -0.018640178199959223, -0.06970965394751483, 0.02644608400954951, 0.4184249457529603, 0.06710147780425979, -0.1455202420919477, -0.027435290436191195, 0.055771972451445606, -0.09475802435058256, 0.24207868559446766, -0.05282116924259128, -0.1882724966860181, -0.05346045629421603, -0.10831494984240475, -0.0036262226167114164, -0.026380022030597416, 0.020118181288705017, 0.03512820925391846, 0.029024371883522804, -0.050134402663047695, 0.01941571781524054, 0.00820689833365762, 0.059280726425585684, -0.07718365209846922, -0.05673269250273272, 0.03097365628437565, 0.0007247489018915587, 0.008388415516517256, 0.019782146741892603, 0.003491413958400358, 0.005668303566913835, 0.008251200563019978, 0.015433351818131769, -26138.047412489912, -6531.351056589328, -27828.254744010683, 4115.784304914595, -2853.4780378757177, 5947.2969555574045, 3239.356094098229, 5439.553043388834, -1045.5513562977637, -3186.2638144687744, -1293.1151114228464, -1370.3649862701186, 2294.7532564451562, 126.06885266970423, -673.5253616644337, 2612.573868375701, -416.9603890424984, 728.5435688754978, -423.9474824581835, 193.72937090269218, 624.0715624214307, 848.2526908954803, 203.55334325653382, 267.0407162120346, -281.85406495705683, 415.69236065810003, -36.281284809552645, -200.64471129157792, -309.4627449287752, 402.29716635513734, -287.8211404969309, -85.99170504947932, -353.66041786946477, -88.78815166082319, 91.55427804323807, 159.00687881395663, -19.361572465047626, 18.16576144299048, 73.62203909931013, -51.666002648729375, 53.389110029386515, -75.84275528406235, 86.75306169407709, -18.629876053784493, -79.92231863503262, 52.21835644721696, -20.015090592704407, -8.769717308918901, -26.528551538730426, 12.826345891981031, 38.143097277369705, 20.928983491977476, 11.808176134089324, -33.39817797289192, 8.658876367053253, -17.060326821948188, 28.370685122758207, 3.9977105517655236, -13.394436948666097, 1.2003447957978324, -15.506115456111598, -22.808618963921663, 20.285560728998284, -21.373649878125338, -9.789647327225582, -18.858803259614817, 25.668189696595725, -10.55452456175219, 9.042524034131763, -15.38042642216454, 8.982557572810254, -13.81310572037757, -4.789888084108865, -7.609246061220905, -4.67924518112816, -14.196846195756155, 1.5219331530338889, 12.82304533106787, -13.479007250521661, -11.534400958399038, -4.45280708648094, -6.7108076887136345, -2.1732436846837038, 2.6187145189789067, -5.466274754836818, -2.9054629146411632, -4.853609796753234, -1.8627814849649442, -0.11582293871914207, -3.478388107673175, -5.699246440844151, 1.1317007503125138, 2.9580676376506343, 4.402184833900115, -0.1404153618747115, -1.8296020708965897, 5.931855198079375, -4.136107841882913, 3.8388793394746465, 1.6372107583283597, -3.460076452048032, 3.0229304850964756, -0.6609113408447209, -2.4981645368943166, 0.5599625931629393, -4.70059925724559, 2.453353853912279, 0.5299611050939124, 2.756814426706174, 2.4158926826701386, 2.3140457319473375, -0.2515955172550539, 2.3026101160227865, 2.3959054951519825, 0.060512554569194243, 0.9950955333443245, -0.685952527439607, 0.7364179384077625, -1.735773376854651, -0.5545384289636628, 1.046701664304468, -0.9992317156000438, -1.3243542071651557, -0.01927737216945835, 0.5678243560125971, -0.10536798380661061, -0.5408399592856128, -0.2682035132696108]",-5.204782608695651,-3.5391891891891896,-5.33,-3.885,0.667,CB,DIO,150.0,MoOx,ZnO,11.07,11.06,0.831,20.11,66.16