DA_mordred_pca,HOMO_D_eV,LUMO_D_eV,HOMO_A_eV,LUMO_A_eV,D_A_ratio_m_m,solvent,solvent_additive,annealing_temperature,hole_contact_layer,electron_contact_layer,PCE_percent,calc_PCE_percent,Voc_V,Jsc_mA_cm_pow_neg2,FF_percent
"[-115347.88484559413, -165719.78172426362, -4565.252042723734, 3976.248640747197, 7580.76374954422, -2964.482971305515, 4056.7977569425334, -5272.318919142178, -3307.43152771972, -3160.3273765311783, 4818.87031778595, 1306.6338661395098, -801.3370009282238, 307.2949077059202, 1311.834034370505, 527.233384990008, -101.6119715168062, -490.13601604414544, -1765.0828412963856, 138.9909717460066, -25.8999059981859, 190.98510806229817, 0.8615812847951929, 100.4261854809211, 202.00837078202028, 498.4897627725909, -440.71289346121074, -65.02940687869744, 344.79335243391836, -438.8925390145969, -319.99772371870347, -213.95124851934742, 117.00365341080152, 15.226133662615922, -74.09542637119102, 226.04366110191495, -63.56191228208796, -28.429230213403628, 259.74169775595396, -38.5277076221123, -29.603113220864657, -20.31154661750884, -91.53163879392542, 59.5236213302104, -9.084411596262782, -127.42053639234643, 112.5998122749811, 23.38515949295919, 2.4930958087128943, -32.1638231568179, 1.1521724189739757, 89.19452928004961, 26.040875425432773, -58.20077168246377, -21.503652022916008, 17.047126248401895, -15.033708208749164, 28.109483068367865, -18.826170819878257, 11.565592277401493, 4.847497758675054, 68.11137154198647, -23.08814116024456, 0.7982640567673798, -2.4231047081056047, -27.859968489013205, -11.227546246221266, -15.67301475860647, -9.019122312990305, -4.52846888373735, -13.448086589624957, -0.6106369616530998, 3.2545465325202407, 10.501056125580988, 29.418642971379484, -8.36721060766817, -0.43022879421864246, -13.887374239189214, 2.158881835524741, -14.22800619691661, 13.175976993223486, 9.032865813282449, 2.42085886504735, 8.55345442121719, -4.994662884170026, 1.8571894143806844, 8.055488971171727, 3.4118617733903136, -14.682927209915345, 5.123225113265406, -3.4510525015182907, -1.20330697676809, -8.789763154179674, 3.867435967600846, 5.286586706547951, 3.213816039882161, 6.208393219290535, -0.6572413815627414, -7.4082942572120345, 3.743603444751418, 5.873613215328035, -0.28855353143806184, -2.843248661588696, -9.15594052062432, 5.714350886738714, -2.215108453948993, 0.5348634492505617, 0.7780708575492383, 0.5997956873605617, 6.488911741753107, 1.7954121211805756, -0.9866797244471055, -3.690385315281846, -0.3434898356309404, -3.727380440927348, -0.45725324780824295, 1.0822707758685333, 1.1842108893574341, 0.7654949759205749, -0.07572330935740013, -0.3914146966664429, -2.1656726336918553, -0.09156520791890088, -0.26073476260926753, -0.5857812900473078, -0.6475399173078102, 0.02910620278289855, -0.9874903887892401, -35133.7948384405, -8229.633002095004, -12056.006677875394, 2789.4971387186242, -6137.391894299175, 347.2184125819449, 313.56897363838834, -763.0529003245208, -753.2713027045285, -463.7277561870353, 442.3965848250751, 144.76451622384843, -82.11980750356622, -241.51593372271438, -166.11661214239564, 161.0117266220481, 156.82867720048182, 45.04865333330787, -64.48252064437057, -23.748315205729725, 175.35196382208807, 75.91403661606171, -286.96291437231935, 32.43950758749915, 86.82629792655737, 17.332913738685377, -52.109964316334626, 147.96654517479746, -66.74616426635947, -30.131339361474026, -64.6842293414586, -20.401781789495175, -60.814467118058936, -33.126806506498966, -10.042152655421425, -51.312256336249625, 3.144366245462294, -3.71627624153237, 36.40376072528973, 0.4548085410526568, 8.77647477218483, -28.125389876423775, 2.49569238193056, -12.913454340121639, 4.879924205036842, -2.3377624767900205, -6.672954601090133, 6.202739337502919, -10.893634984359561, 12.032465269856662, -12.063043989303566, -0.34303639091355365, 5.016332629152714, 0.12086901313429266, -9.726503251923347, 6.137316418082435, -7.076062334661124, 7.3653218625323404, 3.5070409455817924, 2.301233891752652, 4.71929931757742, -1.926768238609477, -5.728496834707801, 0.05692591901005528, -4.227503980921206, 0.19035190488374848, -0.8161738905036682, -0.4714746073762517, 0.016165936440852846, 1.5320458160517845, -3.625921731256579, -1.3255082942715024, 1.0395488339674301, -2.629665545987187, 0.2524077098567754, -0.25955818195747327, -0.9738252465763915, -0.4436497764515863, 0.3498051835956417, -0.5126149363315342, -1.3513245580317377, 0.2982577901396226, 2.0905817811936993, -1.423686297008441, -0.5684747340003078, 0.06286388557579237, 1.556243536792186, 0.47664310848808533, 1.3381005503037402, 1.3274012761810585, -0.18103683328045683, 0.13158711423599634, -0.35216959119522606, 0.24205021276454275, -0.19716096928100413, 0.3411096425350699, 0.8983261097286253, -0.17492589746772325, -0.26859509238574053, -0.13780411398829884, 0.2481245213135157, -0.23952231622609954, -0.5478870274515413, 0.5484971724321479, 0.500298126046161, -0.06133469645540579, -0.3248140481935957, 0.313231347131103, 0.63465776568537, 0.5975958356568718, -0.21144062004099506, -0.6749983329678217, -0.32992632468938865, 0.3033181272449559, -0.12238950451054809, 0.06097724241096092, 0.2639722379565246, -0.2236154184593273, 0.06848499166746613, -0.30866773947200965, -0.13429432396519503, -0.2605157287139417, 0.0014308004863301527, 0.11389554910299449, -0.08035043575031331, -0.3428563737769905, -0.05785525732550667, -0.006029155567380151]",-5.29,-3.19,-5.574146341463415,-3.915,1.5,CB,_,25.0,MoOx,ZnO,5.8,5.78,0.94,11.6,53.0
"[-115574.85772040529, -169288.91306417907, -6447.672500190784, 3539.5113449875225, 9226.334467677096, -4871.116932371828, 2905.8051268538848, -4865.870342056407, -1917.6881561225996, -3428.918372247492, 5081.116905343742, 759.1237115043818, 209.79105401768064, 27.411449725108014, 2223.451743832027, 290.388800969483, -138.23926907704185, -287.38367580051863, -1235.5311662731024, -22.891994698803728, -278.2585150566928, 90.63707115354879, 110.60675167793397, 43.22674538194309, 245.5208265145169, 411.63561885447507, -355.51983281387885, -294.67747168549624, 556.7984855188945, -168.6458961034766, -360.12879552750593, -353.3929031113771, -78.14431416667901, -83.46082780276002, -38.185945595089834, 58.47363417934798, -99.8876237759642, 13.82660417627676, 218.77859317710326, -154.1950036492066, 47.605523043072054, 99.35359433295923, 0.013112506441359528, -40.64005467161695, 18.505136611698333, 0.05533469690325887, 13.4455821764533, 148.39241403360302, -41.62949095830538, 12.080938984591285, -25.884509724955407, 6.801483630599023, 23.42206492053493, -35.309574372326836, -16.48013877908221, 24.970357998003365, -36.554609113154996, 7.79020439919951, -46.060231715860056, 43.97299582018758, -29.14675997048655, 14.540979376046437, -28.936843918921625, -11.414853038009312, 21.101987955483963, -1.4588307471604764, -8.95829659614509, 19.67274038507645, 12.87167204489785, -23.619443236438382, 22.00861395593504, 28.898220650914425, -4.428637050778798, 1.6408808528952648, -6.572144268113661, 5.723551373969698, -4.775073252913373, 2.6278331019820556, 6.8016522164632764, -2.547948060153331, 1.2016851310768573, 11.08909895729289, 5.224125560454738, 0.39368075802125446, 14.91487467355752, 8.090861962992136, 8.009625765729762, 5.010082539373428, -2.193791303386557, 6.342630725064595, 11.935543565757172, 18.204663251925155, -3.4139671851232833, 1.9074706908084433, -1.3126439771279195, -6.499374466984577, -2.9936598582019993, -3.356919608658302, -4.818704757080354, -2.522606627801423, -2.109201400242924, 0.11279259204026637, 6.389460870045468, 5.416103324800709, -3.7732147381612346, 6.316056230788185, -5.599375162293342, -0.22546597800358015, 4.198722540139276, -3.3033212153491363, -3.728592982771012, 1.3359253752571938, 1.4049143350887956, -1.1647749939909176, 0.42353695218415055, 1.3262813396470108, 0.005423906520483968, -1.330011133998254, -0.12608660978776243, -0.9960126368141822, 3.579544743003872, 1.3691748139661897, -0.3137433515682222, 0.3835536716582624, 0.836382823366435, 0.5281933103332506, -0.08717067875586793, 1.0348517994126212, -35133.7948384405, -8229.633002095004, -12056.006677875394, 2789.4971387186242, -6137.391894299175, 347.2184125819449, 313.56897363838834, -763.0529003245208, -753.2713027045285, -463.7277561870353, 442.3965848250751, 144.76451622384843, -82.11980750356622, -241.51593372271438, -166.11661214239564, 161.0117266220481, 156.82867720048182, 45.04865333330787, -64.48252064437057, -23.748315205729725, 175.35196382208807, 75.91403661606171, -286.96291437231935, 32.43950758749915, 86.82629792655737, 17.332913738685377, -52.109964316334626, 147.96654517479746, -66.74616426635947, -30.131339361474026, -64.6842293414586, -20.401781789495175, -60.814467118058936, -33.126806506498966, -10.042152655421425, -51.312256336249625, 3.144366245462294, -3.71627624153237, 36.40376072528973, 0.4548085410526568, 8.77647477218483, -28.125389876423775, 2.49569238193056, -12.913454340121639, 4.879924205036842, -2.3377624767900205, -6.672954601090133, 6.202739337502919, -10.893634984359561, 12.032465269856662, -12.063043989303566, -0.34303639091355365, 5.016332629152714, 0.12086901313429266, -9.726503251923347, 6.137316418082435, -7.076062334661124, 7.3653218625323404, 3.5070409455817924, 2.301233891752652, 4.71929931757742, -1.926768238609477, -5.728496834707801, 0.05692591901005528, -4.227503980921206, 0.19035190488374848, -0.8161738905036682, -0.4714746073762517, 0.016165936440852846, 1.5320458160517845, -3.625921731256579, -1.3255082942715024, 1.0395488339674301, -2.629665545987187, 0.2524077098567754, -0.25955818195747327, -0.9738252465763915, -0.4436497764515863, 0.3498051835956417, -0.5126149363315342, -1.3513245580317377, 0.2982577901396226, 2.0905817811936993, -1.423686297008441, -0.5684747340003078, 0.06286388557579237, 1.556243536792186, 0.47664310848808533, 1.3381005503037402, 1.3274012761810585, -0.18103683328045683, 0.13158711423599634, -0.35216959119522606, 0.24205021276454275, -0.19716096928100413, 0.3411096425350699, 0.8983261097286253, -0.17492589746772325, -0.26859509238574053, -0.13780411398829884, 0.2481245213135157, -0.23952231622609954, -0.5478870274515413, 0.5484971724321479, 0.500298126046161, -0.06133469645540579, -0.3248140481935957, 0.313231347131103, 0.63465776568537, 0.5975958356568718, -0.21144062004099506, -0.6749983329678217, -0.32992632468938865, 0.3033181272449559, -0.12238950451054809, 0.06097724241096092, 0.2639722379565246, -0.2236154184593273, 0.06848499166746613, -0.30866773947200965, -0.13429432396519503, -0.2605157287139417, 0.0014308004863301527, 0.11389554910299449, -0.08035043575031331, -0.3428563737769905, -0.05785525732550667, -0.006029155567380151]",-5.03,-2.93,-5.574146341463415,-3.915,1.0,CB,_,160.0,MoOx,ZnO,2.5,2.46,0.79,7.6,41.0
"[-52793.798581587194, -46520.86916537581, 5656.888026356814, 2727.690287915686, -6786.847661010761, 2864.759627717285, -2136.957654758551, -4389.73250593225, 3113.2325505763706, 683.0132962316137, -2468.767536704577, -738.9842752312718, 758.8006629052506, 539.017164603813, 1501.7336091999532, 119.20125898140935, 327.3285665646756, -188.69751658645862, 773.4254541381138, -1159.7599019727377, -828.9775562858528, 614.1862481123901, -434.66749604790857, -59.029359234167345, 68.68573288407958, -219.8648208031259, 41.68606847485104, 98.43361628924225, 13.23832033748539, -370.7132690746415, -84.5852121567992, -96.03233076243474, 79.54990877297458, -3.6804399362562457, -132.7425038012554, -18.46017831524017, 15.139194989510244, 163.07004761902246, 69.76737487063703, -62.01092472942469, 5.83378147335894, 67.1880419266478, -100.06821184158852, 88.89328137202511, 13.211067207435804, 24.853506823463725, 54.8568977065311, -13.99575852645951, 3.8824238106556876, 48.40382561041409, 33.503305374912365, -1.3348785364858706, 23.22318501622725, 24.573952189009624, -11.353945494465705, 16.067620437594478, -26.729905804557397, 2.064688563639873, 27.345603200555075, 2.842415428144861, -24.484845519264503, -5.475801357944789, 12.405788317585476, -4.507978539692388, 17.207626585338332, 8.083315195927534, -3.1359655507245066, -7.367802277589089, 10.438064677553406, 16.400710066769484, -2.5723820505027586, 7.653311740007478, -12.448141241656334, 0.7496399939390237, -12.438307925955758, -2.2472679742722725, -5.154040531329979, 3.3537785082476654, -0.6801572794224717, 0.6355708341857635, -2.8723060560508458, 9.707977170100234, -4.065215770869756, -7.82529820680951, -4.302761092718221, -12.40036673613973, 1.2311495698979935, -10.841129941566873, 2.6039067168153545, -4.055114847450927, -0.6969863558196892, 7.954174635769888, -8.49091218078884, -5.709695508917567, 4.104143547864232, -3.7564170918041597, 3.896572139694107, -2.115913230437428, -2.7079565435500292, 1.0672157966380669, 3.5871710009381097, -1.4970476665103094, -0.9903778678340913, -0.6123935443338873, 5.935371471849006, 0.021062294344091015, -0.5109424720765894, 4.862640198583666, 1.3659024304110896, -2.2893426996252693, 2.3492066184258658, 3.863686675558783, 1.1072600190088533, -1.2812079707990316, -1.5731832189746413, 0.2279520810841742, -1.5071929491030431, -1.4672715928958557, 3.3941083304821813, -2.6944846718489215, -0.2893830035523042, 1.562209802186139, 5.128840574427592, 0.5664275333007733, -2.18672199649658, 0.08706514901187745, 0.7299110239833042, 0.39616071115723983, -35133.7948384405, -8229.633002095004, -12056.006677875394, 2789.4971387186242, -6137.391894299175, 347.2184125819449, 313.56897363838834, -763.0529003245208, -753.2713027045285, -463.7277561870353, 442.3965848250751, 144.76451622384843, -82.11980750356622, -241.51593372271438, -166.11661214239564, 161.0117266220481, 156.82867720048182, 45.04865333330787, -64.48252064437057, -23.748315205729725, 175.35196382208807, 75.91403661606171, -286.96291437231935, 32.43950758749915, 86.82629792655737, 17.332913738685377, -52.109964316334626, 147.96654517479746, -66.74616426635947, -30.131339361474026, -64.6842293414586, -20.401781789495175, -60.814467118058936, -33.126806506498966, -10.042152655421425, -51.312256336249625, 3.144366245462294, -3.71627624153237, 36.40376072528973, 0.4548085410526568, 8.77647477218483, -28.125389876423775, 2.49569238193056, -12.913454340121639, 4.879924205036842, -2.3377624767900205, -6.672954601090133, 6.202739337502919, -10.893634984359561, 12.032465269856662, -12.063043989303566, -0.34303639091355365, 5.016332629152714, 0.12086901313429266, -9.726503251923347, 6.137316418082435, -7.076062334661124, 7.3653218625323404, 3.5070409455817924, 2.301233891752652, 4.71929931757742, -1.926768238609477, -5.728496834707801, 0.05692591901005528, -4.227503980921206, 0.19035190488374848, -0.8161738905036682, -0.4714746073762517, 0.016165936440852846, 1.5320458160517845, -3.625921731256579, -1.3255082942715024, 1.0395488339674301, -2.629665545987187, 0.2524077098567754, -0.25955818195747327, -0.9738252465763915, -0.4436497764515863, 0.3498051835956417, -0.5126149363315342, -1.3513245580317377, 0.2982577901396226, 2.0905817811936993, -1.423686297008441, -0.5684747340003078, 0.06286388557579237, 1.556243536792186, 0.47664310848808533, 1.3381005503037402, 1.3274012761810585, -0.18103683328045683, 0.13158711423599634, -0.35216959119522606, 0.24205021276454275, -0.19716096928100413, 0.3411096425350699, 0.8983261097286253, -0.17492589746772325, -0.26859509238574053, -0.13780411398829884, 0.2481245213135157, -0.23952231622609954, -0.5478870274515413, 0.5484971724321479, 0.500298126046161, -0.06133469645540579, -0.3248140481935957, 0.313231347131103, 0.63465776568537, 0.5975958356568718, -0.21144062004099506, -0.6749983329678217, -0.32992632468938865, 0.3033181272449559, -0.12238950451054809, 0.06097724241096092, 0.2639722379565246, -0.2236154184593273, 0.06848499166746613, -0.30866773947200965, -0.13429432396519503, -0.2605157287139417, 0.0014308004863301527, 0.11389554910299449, -0.08035043575031331, -0.3428563737769905, -0.05785525732550667, -0.006029155567380151]",-5.47,-3.58,-5.574146341463415,-3.915,1.0,CB,_,120.0,PEDOT:PSS,C60-bissalt,10.12,10.12,0.96,16.4,64.3