DA_mordred_pca,HOMO_D_eV,LUMO_D_eV,HOMO_A_eV,LUMO_A_eV,D_A_ratio_m_m,solvent,solvent_additive,annealing_temperature,hole_contact_layer,electron_contact_layer,PCE_percent,calc_PCE_percent,Voc_V,Jsc_mA_cm_pow_neg2,FF_percent
"[-47344.12229971381, 23594.10696163134, -5709.159125042373, 4348.051430368143, 2118.117304932317, 4707.296659828325, 5882.745764718254, 2682.591651747187, 55.90476192205483, -2202.1683301027724, 2802.211678470145, -126.18632247684843, -8.768751482809378, 1814.3088018689514, -1524.7402435337153, -1137.615312071998, -1913.0389527385023, -1157.3385324671015, -245.31255543149805, -726.2241620831255, -70.58115206937909, 93.18953926528333, -173.7924806316554, -218.2131263510501, -113.01176734082617, -404.83214995518085, 6.315597569265151, 73.09408604408682, -195.901819931769, -365.9341294594115, -50.58132321220042, 10.53842264291992, -96.57799022227127, 49.35658479207047, 69.87622513552716, 28.634833346576514, -66.09904012502945, 130.84795473612786, -23.660003210979994, 6.03557953067585, 152.4068815328355, -15.435546374598921, 56.92375457052593, 5.646045881560916, -112.67493665148876, 46.20582653033479, -65.98067287432232, -10.131355199777744, 22.771237757541925, -16.012157506490276, -2.628660909959894, 35.46061557918959, -33.312514935145735, 24.02046397509755, 6.879453442811096, 12.300726874631115, -0.5114684785150212, -14.984290752967961, -14.75759739762858, 41.36790364266643, -0.3000226636390382, 3.6198189450714935, -9.117679368313702, 7.967360612516384, 10.738830969315803, 4.861103099799699, 1.6405260726985844, 12.985712816735257, -1.5844558640551476, -1.594523379779539, 7.645316947192233, -2.0488720219451224, 1.1324684392102822, 8.801395601231924, -0.09881594482603795, 5.4965854462043495, 0.6191490279669907, -4.171901378962293, -6.002791358444094, -0.6026517028519862, 2.103434771680085, -1.0019148892059997, -1.7208130514212812, -0.027869844480084893, -2.2292877551052896, -1.9600835025238794, 1.413920521369605, -2.818047571810716, 0.9086292449071856, 0.37755523558527493, -0.30431629341031297, -0.04072605971024146, 0.22868696794805743, 1.1056160199251588, -1.4038276188719454, 1.9434434579894848, 0.5136345287390505, 0.07653268091012677, 1.124727726434763, 0.6016471890484907, 0.6693093749598198, -0.5006974404084037, 0.8417972685017912, -0.15845466505855654, 0.06258757310857144, -0.9331206452669729, -0.2768575022952131, -0.2324217520691203, -0.38309870311885963, -0.09634245139402853, -0.08417469248030951, 0.1674050565629756, 0.14597537319818388, -0.34187533164161676, -0.2862454740172993, -0.11512670159740424, 0.06331652198058357, 0.4706859522815743, 0.28824552789101876, -0.08541436390648069, -0.4965768290878376, 0.16756950335955878, 0.00080502416161643, 0.16071618057737425, 0.007830908657233238, 0.05411672777119669, 0.05985952411887152, -0.0892047534925915, -32819.052364382784, 4416.358508800044, -11048.263164154501, 2020.7323067206203, -6941.461014173032, 2046.7142721764312, 459.85112977854453, -415.3194215866469, -869.7185227585018, -1016.3972806395869, 939.6480235776135, -60.064621903477644, 439.91860871734, -581.152629829058, 1620.9981053481424, -14.822087904932033, 334.4186053167091, -461.59391956252915, 236.53434080842078, 585.8414695570567, -540.145216824732, 97.73880260044493, 581.5107396298313, -396.1776114685889, -153.28295566079504, -398.9226326701838, -4.672403369698905, 294.0566440376388, -192.09650829739036, 169.780942585778, 48.224074138861134, 148.18699641312037, -3.3201232231038986, 30.77234639681098, -9.148315489916671, -99.00027614098076, 33.28918970985244, -131.65528142485712, -73.61811815418406, 89.16691247863227, -3.2624088417524906, -3.3225497477506387, 63.39428538987454, 51.247936556114546, 19.494449622046247, -26.01937202448171, -9.039685517167692, -77.25207064954685, -19.68279019490065, -30.76743983115101, 3.843329228646918, -26.35871897091903, -25.15100114179096, -8.395962957688287, -4.85321750517944, -14.784076275845727, 1.7755348703417102, 9.650181237051001, -5.284801050450287, 2.7082367843397606, 10.789130516333868, 6.122773897726779, 17.137231543436616, -10.100244555039552, 0.7221857170219224, 18.876260079485892, -6.087519912226079, -1.5304843047082093, -9.742185751003479, -0.3415275492425751, -0.7620331550638104, -5.375948459667979, -0.5904282411403363, 9.906775113032575, -5.294700501908823, 5.876345306492222, 1.9020787229952025, 2.4123918023459687, -3.526447814961159, -4.7797270586035445, 2.7720761514513756, 2.9732673387650665, 4.616946365219348, 2.3766468943920405, -1.191530632200843, -0.1726638448562703, 2.633776963708684, -0.7353030498591862, -0.771358679223039, -0.38966328299273784, 0.8642590085178901, 1.228496764031899, -0.6762932943542355, -0.4423405837339498, 0.235833702133192, -2.4374726707414816, -0.3723125079990983, -1.7310377476543106, 0.6774075076890991, 0.6218896810741441, -0.9199308626922265, -0.38283156829120835, 0.9484623616503891, 0.6900483575721181, -2.528390129711804, -0.4282420078109612, -1.4178634816597369, -1.8943219028105458, -0.7135783447507817, -0.6660413000475502, -0.3665659893834583, -0.8399755634700927, 0.08403303891037073, 0.39265684521676913, -0.23827524612689155, -0.5328678908275803, -0.5883008108630534, 1.1358591608584732, 0.35680086757004714, 0.41970184724480797, 1.1388723793220987, 0.18128599460621997, -0.6055097390550688, -0.7031025429530173, -0.3646729309154668, 0.9256567604050479, -0.29964659165657936, 0.02706544026066604]",-5.36,-3.4200000000000004,-5.513571428571429,-3.808,1.0,CF,DIO,25.0,PEDOT:PSS,PFN-Br,12.2,12.23,0.97,17.76,71.0
"[-47344.12229971381, 23594.10696163134, -5709.159125042373, 4348.051430368143, 2118.117304932317, 4707.296659828325, 5882.745764718254, 2682.591651747187, 55.90476192205483, -2202.1683301027724, 2802.211678470145, -126.18632247684843, -8.768751482809378, 1814.3088018689514, -1524.7402435337153, -1137.615312071998, -1913.0389527385023, -1157.3385324671015, -245.31255543149805, -726.2241620831255, -70.58115206937909, 93.18953926528333, -173.7924806316554, -218.2131263510501, -113.01176734082617, -404.83214995518085, 6.315597569265151, 73.09408604408682, -195.901819931769, -365.9341294594115, -50.58132321220042, 10.53842264291992, -96.57799022227127, 49.35658479207047, 69.87622513552716, 28.634833346576514, -66.09904012502945, 130.84795473612786, -23.660003210979994, 6.03557953067585, 152.4068815328355, -15.435546374598921, 56.92375457052593, 5.646045881560916, -112.67493665148876, 46.20582653033479, -65.98067287432232, -10.131355199777744, 22.771237757541925, -16.012157506490276, -2.628660909959894, 35.46061557918959, -33.312514935145735, 24.02046397509755, 6.879453442811096, 12.300726874631115, -0.5114684785150212, -14.984290752967961, -14.75759739762858, 41.36790364266643, -0.3000226636390382, 3.6198189450714935, -9.117679368313702, 7.967360612516384, 10.738830969315803, 4.861103099799699, 1.6405260726985844, 12.985712816735257, -1.5844558640551476, -1.594523379779539, 7.645316947192233, -2.0488720219451224, 1.1324684392102822, 8.801395601231924, -0.09881594482603795, 5.4965854462043495, 0.6191490279669907, -4.171901378962293, -6.002791358444094, -0.6026517028519862, 2.103434771680085, -1.0019148892059997, -1.7208130514212812, -0.027869844480084893, -2.2292877551052896, -1.9600835025238794, 1.413920521369605, -2.818047571810716, 0.9086292449071856, 0.37755523558527493, -0.30431629341031297, -0.04072605971024146, 0.22868696794805743, 1.1056160199251588, -1.4038276188719454, 1.9434434579894848, 0.5136345287390505, 0.07653268091012677, 1.124727726434763, 0.6016471890484907, 0.6693093749598198, -0.5006974404084037, 0.8417972685017912, -0.15845466505855654, 0.06258757310857144, -0.9331206452669729, -0.2768575022952131, -0.2324217520691203, -0.38309870311885963, -0.09634245139402853, -0.08417469248030951, 0.1674050565629756, 0.14597537319818388, -0.34187533164161676, -0.2862454740172993, -0.11512670159740424, 0.06331652198058357, 0.4706859522815743, 0.28824552789101876, -0.08541436390648069, -0.4965768290878376, 0.16756950335955878, 0.00080502416161643, 0.16071618057737425, 0.007830908657233238, 0.05411672777119669, 0.05985952411887152, -0.0892047534925915, -32819.052364382784, 4416.358508800044, -11048.263164154501, 2020.7323067206203, -6941.461014173032, 2046.7142721764312, 459.85112977854453, -415.3194215866469, -869.7185227585018, -1016.3972806395869, 939.6480235776135, -60.064621903477644, 439.91860871734, -581.152629829058, 1620.9981053481424, -14.822087904932033, 334.4186053167091, -461.59391956252915, 236.53434080842078, 585.8414695570567, -540.145216824732, 97.73880260044493, 581.5107396298313, -396.1776114685889, -153.28295566079504, -398.9226326701838, -4.672403369698905, 294.0566440376388, -192.09650829739036, 169.780942585778, 48.224074138861134, 148.18699641312037, -3.3201232231038986, 30.77234639681098, -9.148315489916671, -99.00027614098076, 33.28918970985244, -131.65528142485712, -73.61811815418406, 89.16691247863227, -3.2624088417524906, -3.3225497477506387, 63.39428538987454, 51.247936556114546, 19.494449622046247, -26.01937202448171, -9.039685517167692, -77.25207064954685, -19.68279019490065, -30.76743983115101, 3.843329228646918, -26.35871897091903, -25.15100114179096, -8.395962957688287, -4.85321750517944, -14.784076275845727, 1.7755348703417102, 9.650181237051001, -5.284801050450287, 2.7082367843397606, 10.789130516333868, 6.122773897726779, 17.137231543436616, -10.100244555039552, 0.7221857170219224, 18.876260079485892, -6.087519912226079, -1.5304843047082093, -9.742185751003479, -0.3415275492425751, -0.7620331550638104, -5.375948459667979, -0.5904282411403363, 9.906775113032575, -5.294700501908823, 5.876345306492222, 1.9020787229952025, 2.4123918023459687, -3.526447814961159, -4.7797270586035445, 2.7720761514513756, 2.9732673387650665, 4.616946365219348, 2.3766468943920405, -1.191530632200843, -0.1726638448562703, 2.633776963708684, -0.7353030498591862, -0.771358679223039, -0.38966328299273784, 0.8642590085178901, 1.228496764031899, -0.6762932943542355, -0.4423405837339498, 0.235833702133192, -2.4374726707414816, -0.3723125079990983, -1.7310377476543106, 0.6774075076890991, 0.6218896810741441, -0.9199308626922265, -0.38283156829120835, 0.9484623616503891, 0.6900483575721181, -2.528390129711804, -0.4282420078109612, -1.4178634816597369, -1.8943219028105458, -0.7135783447507817, -0.6660413000475502, -0.3665659893834583, -0.8399755634700927, 0.08403303891037073, 0.39265684521676913, -0.23827524612689155, -0.5328678908275803, -0.5883008108630534, 1.1358591608584732, 0.35680086757004714, 0.41970184724480797, 1.1388723793220987, 0.18128599460621997, -0.6055097390550688, -0.7031025429530173, -0.3646729309154668, 0.9256567604050479, -0.29964659165657936, 0.02706544026066604]",-5.36,-3.4200000000000004,-5.513571428571429,-3.808,1.0,THF,isopropanol,25.0,PEDOT:PSS,PFN-Br,12.0,11.82,0.96,18.37,67.0
"[-47344.12229971381, 23594.10696163134, -5709.159125042373, 4348.051430368143, 2118.117304932317, 4707.296659828325, 5882.745764718254, 2682.591651747187, 55.90476192205483, -2202.1683301027724, 2802.211678470145, -126.18632247684843, -8.768751482809378, 1814.3088018689514, -1524.7402435337153, -1137.615312071998, -1913.0389527385023, -1157.3385324671015, -245.31255543149805, -726.2241620831255, -70.58115206937909, 93.18953926528333, -173.7924806316554, -218.2131263510501, -113.01176734082617, -404.83214995518085, 6.315597569265151, 73.09408604408682, -195.901819931769, -365.9341294594115, -50.58132321220042, 10.53842264291992, -96.57799022227127, 49.35658479207047, 69.87622513552716, 28.634833346576514, -66.09904012502945, 130.84795473612786, -23.660003210979994, 6.03557953067585, 152.4068815328355, -15.435546374598921, 56.92375457052593, 5.646045881560916, -112.67493665148876, 46.20582653033479, -65.98067287432232, -10.131355199777744, 22.771237757541925, -16.012157506490276, -2.628660909959894, 35.46061557918959, -33.312514935145735, 24.02046397509755, 6.879453442811096, 12.300726874631115, -0.5114684785150212, -14.984290752967961, -14.75759739762858, 41.36790364266643, -0.3000226636390382, 3.6198189450714935, -9.117679368313702, 7.967360612516384, 10.738830969315803, 4.861103099799699, 1.6405260726985844, 12.985712816735257, -1.5844558640551476, -1.594523379779539, 7.645316947192233, -2.0488720219451224, 1.1324684392102822, 8.801395601231924, -0.09881594482603795, 5.4965854462043495, 0.6191490279669907, -4.171901378962293, -6.002791358444094, -0.6026517028519862, 2.103434771680085, -1.0019148892059997, -1.7208130514212812, -0.027869844480084893, -2.2292877551052896, -1.9600835025238794, 1.413920521369605, -2.818047571810716, 0.9086292449071856, 0.37755523558527493, -0.30431629341031297, -0.04072605971024146, 0.22868696794805743, 1.1056160199251588, -1.4038276188719454, 1.9434434579894848, 0.5136345287390505, 0.07653268091012677, 1.124727726434763, 0.6016471890484907, 0.6693093749598198, -0.5006974404084037, 0.8417972685017912, -0.15845466505855654, 0.06258757310857144, -0.9331206452669729, -0.2768575022952131, -0.2324217520691203, -0.38309870311885963, -0.09634245139402853, -0.08417469248030951, 0.1674050565629756, 0.14597537319818388, -0.34187533164161676, -0.2862454740172993, -0.11512670159740424, 0.06331652198058357, 0.4706859522815743, 0.28824552789101876, -0.08541436390648069, -0.4965768290878376, 0.16756950335955878, 0.00080502416161643, 0.16071618057737425, 0.007830908657233238, 0.05411672777119669, 0.05985952411887152, -0.0892047534925915, -32819.052364382784, 4416.358508800044, -11048.263164154501, 2020.7323067206203, -6941.461014173032, 2046.7142721764312, 459.85112977854453, -415.3194215866469, -869.7185227585018, -1016.3972806395869, 939.6480235776135, -60.064621903477644, 439.91860871734, -581.152629829058, 1620.9981053481424, -14.822087904932033, 334.4186053167091, -461.59391956252915, 236.53434080842078, 585.8414695570567, -540.145216824732, 97.73880260044493, 581.5107396298313, -396.1776114685889, -153.28295566079504, -398.9226326701838, -4.672403369698905, 294.0566440376388, -192.09650829739036, 169.780942585778, 48.224074138861134, 148.18699641312037, -3.3201232231038986, 30.77234639681098, -9.148315489916671, -99.00027614098076, 33.28918970985244, -131.65528142485712, -73.61811815418406, 89.16691247863227, -3.2624088417524906, -3.3225497477506387, 63.39428538987454, 51.247936556114546, 19.494449622046247, -26.01937202448171, -9.039685517167692, -77.25207064954685, -19.68279019490065, -30.76743983115101, 3.843329228646918, -26.35871897091903, -25.15100114179096, -8.395962957688287, -4.85321750517944, -14.784076275845727, 1.7755348703417102, 9.650181237051001, -5.284801050450287, 2.7082367843397606, 10.789130516333868, 6.122773897726779, 17.137231543436616, -10.100244555039552, 0.7221857170219224, 18.876260079485892, -6.087519912226079, -1.5304843047082093, -9.742185751003479, -0.3415275492425751, -0.7620331550638104, -5.375948459667979, -0.5904282411403363, 9.906775113032575, -5.294700501908823, 5.876345306492222, 1.9020787229952025, 2.4123918023459687, -3.526447814961159, -4.7797270586035445, 2.7720761514513756, 2.9732673387650665, 4.616946365219348, 2.3766468943920405, -1.191530632200843, -0.1726638448562703, 2.633776963708684, -0.7353030498591862, -0.771358679223039, -0.38966328299273784, 0.8642590085178901, 1.228496764031899, -0.6762932943542355, -0.4423405837339498, 0.235833702133192, -2.4374726707414816, -0.3723125079990983, -1.7310377476543106, 0.6774075076890991, 0.6218896810741441, -0.9199308626922265, -0.38283156829120835, 0.9484623616503891, 0.6900483575721181, -2.528390129711804, -0.4282420078109612, -1.4178634816597369, -1.8943219028105458, -0.7135783447507817, -0.6660413000475502, -0.3665659893834583, -0.8399755634700927, 0.08403303891037073, 0.39265684521676913, -0.23827524612689155, -0.5328678908275803, -0.5883008108630534, 1.1358591608584732, 0.35680086757004714, 0.41970184724480797, 1.1388723793220987, 0.18128599460621997, -0.6055097390550688, -0.7031025429530173, -0.3646729309154668, 0.9256567604050479, -0.29964659165657936, 0.02706544026066604]",-5.36,-3.4200000000000004,-5.513571428571429,-3.808,1.0,o-xylene,PN,25.0,PEDOT:PSS,PFN-Br,13.1,13.09,0.97,18.74,72.0