DA_mordred_pca,HOMO_D_eV,LUMO_D_eV,HOMO_A_eV,LUMO_A_eV,D_A_ratio_m_m,solvent,solvent_additive,annealing_temperature,hole_contact_layer,electron_contact_layer,PCE_percent,calc_PCE_percent,Voc_V,Jsc_mA_cm_pow_neg2,FF_percent
"[-96218.45766618998, 38190.55941397739, 9341.19863978244, -298.0321681723599, 3837.039845288656, -633.0815150821412, -1318.980794355729, 952.285808193773, 528.6042339012306, -265.75996339509254, 85.60403763240663, 327.51410203292335, 339.9238825739942, -217.3938336123946, 80.63195135367053, -89.32083633853233, 32.19492584684396, -21.519530699055707, -3.6266113552724115, -73.04368468656011, 86.79421267883791, 28.9157151412623, 61.36551771993493, -20.29937758864763, -20.5145225649866, 1.7418865694839667, -22.377181673057002, 12.371971410300219, 34.95291732805864, 10.187903617561325, 15.16604348820858, 8.612060636243209, -1.1743635221400766, 7.0376682218726625, -4.093627003889395, 9.922048209550361, -15.554840299560915, -5.613674452998811, -0.2972665085945745, 4.368352481075529, -3.6043195792310403, 1.354200703685919, 2.8516893216669104, -4.255469010620061, 8.299974464104451, 1.2791418187815111, 1.2654639155740988, -2.171801897186288, 0.7563528622149089, 1.6309678283868045, 0.8461705305940708, 3.200150728577338, 4.514637663770485, 2.047832060332592, 0.988495732690156, 3.0209744065138135, -1.0787642655477623, -0.5848165573459294, 0.7450505682325215, 0.7138952097940852, -0.4513392507860554, 0.44000043161623736, 0.9076636698868725, -0.7553614212014921, -1.1367214236829248, 1.4883333004282742, -0.6534390261587824, -0.2020478861539523, 0.5979438493412772, 0.35044047212350127, 0.5920200016964907, -0.4545510567545348, 1.2436977886366634, 0.06188974879205844, 0.28770923066137755, 0.34025436763747585, 0.054350949740208376, 0.15963437295462057, -0.5109982693033068, 0.3735134387368202, 0.6870145153430531, 0.38216412404326583, -0.20553217795980494, -0.08297866327442271, -0.09481622405384194, -0.0074888306561717854, 0.442508262678758, 0.06098427500299941, -0.4139541096843904, 0.14832844029545988, -0.294554145147611, 0.015892796356977712, 0.1548609075275289, -0.005654655004061704, 0.07842930267586645, -0.20841896255037717, 0.07855635365402769, 0.01820150849557578, 0.012441639298426566, -0.05940224021880214, 0.12084591158474112, 0.026787833651969892, 0.019668535058581682, 0.05537380493890609, -0.03933624965050253, 0.009307974571203914, -0.023474896973407267, 0.020049719383548492, 0.003215210697313786, -0.04194589694978035, 0.04089452902605473, 0.02749361263995076, -0.07262298298187164, 0.015379054954234306, 0.0506532373375812, 0.01506994111025417, -0.02377975685210143, 0.009711782809699865, -0.04845640783987859, 0.03322037544939782, -0.008444174408285043, -0.002255075440015908, 0.022455666638478533, -0.005795103590370054, 0.02421124183525336, 0.01760123567103644, -0.016655303062377946, 0.018813816162650987, -75625.03633909747, -102846.53575728225, 26147.029224144928, 2568.8582294652515, -3874.2575056606947, -1194.3474217556582, -947.1054888748768, 328.4496446229132, 1568.8616179245753, 1641.347743367105, -2974.3103770517428, -550.3701911226826, -1281.2128748102677, 774.0283168028932, -778.453145892703, -640.625834743069, 1047.6526948709788, -1792.1236363187595, -341.27114284968707, -877.8343466641847, -50.787154316969236, 259.4061712890782, -68.86801292701546, 930.2611193576106, 205.6997794190081, -295.81916241955116, 122.01716705200471, 221.86192382728382, -393.883542776048, 150.1128027712416, -141.58655176573504, -89.03497048988606, -124.29692419061638, 95.01672031853025, 158.69053671953912, 190.25787706928503, -316.1109327376521, -7.113823508402504, 113.13763836117074, -10.535881170733376, 96.03485586740172, -162.64907986598416, -39.27448272242577, -15.367519565418064, 38.425337922126985, 15.253383595883108, 46.56059263121992, -48.52932442047339, -76.79251862958756, -82.42460898701187, 35.067235364981954, -8.263030117996209, 20.52828337887277, -8.02310422366699, 18.10998686227657, -54.86067690160931, 8.232665568598208, 17.70642027402812, -20.18724142183453, 21.46794847848838, -14.79124153947346, 6.148521403512781, 20.19516313896571, -28.873535802126185, 7.476619161799789, 7.1916748602320855, 1.3120565582384707, 11.010711156028417, -23.39674839564701, 5.4580103384715954, 19.542251861578052, 0.49934917378523114, -1.4992283563035471, 3.840906144587173, 21.707122026199347, -9.555235931014408, -11.841997486074618, -8.992186421433203, 7.34835018221122, -6.30659039134332, 0.7077186062903138, 3.551953895710298, 2.9936103903743003, 8.951983243988039, 1.92852133732913, -3.864376804530977, -0.9567592802831157, -0.5990230608711897, 7.882051120166972, 1.367802294767273, 6.911340428372753, -0.8562442830267543, 8.269946844983295, -2.6855944265685707, -3.7866282377445373, 2.3059881483029443, 2.432475158988403, 4.318589652134531, -2.8976654698208133, -4.1979874373562325, -0.45980735796715066, 4.869092363500705, -2.1827756888301897, -5.5081937666815985, 6.361959720453811, -4.932055108086093, -0.9440815334017536, 0.63469476814182, 2.027835227938297, -3.5123157042947852, -0.9292438889664538, -0.4902848536790003, 2.33968078629961, -1.8337454665534025, -1.1144183783017887, -0.7995642944839005, -3.884002953277971, -4.752507177199785, -0.27463190477779875, -0.44452675694251553, -1.878033698817327, 1.5583035473490678, 0.7187428732730048, 0.6260854867194894, 2.0654559125730394, 1.0588699947924525, -2.3379181665797404, 0.6910963610399321]",-5.297714285714285,-3.4170000000000003,-5.87,-3.92,1.0,CB,_,25.0,MoOx,TiO2:TOPD,3.39,3.38,0.96,7.71,45.63
"[-105631.73783275932, -74572.73247403272, 4329.753734020427, -2341.4243576849567, -5555.485216633641, -172.87819728700106, -798.6979620852667, 856.8010146047068, -1780.8026309386028, 649.5717848685752, 65.62447326392157, 388.30062073400836, -353.1258883999071, -137.697950651705, 31.52142203119479, -106.39355730444561, 81.98057692092414, -63.14138686604906, 66.8688432765725, -31.850017336689234, -14.562814664564094, -114.9941249091529, 19.27422754978045, 6.86920436049806, -13.362968611123335, -88.88424698589336, -9.680549433746734, -6.256532059762719, -19.287322586292646, 30.85187752382363, -0.060728621664203786, -1.7204165771485123, 18.096287928493183, -5.394264557244732, 40.036620565000476, -33.18107886987201, 2.1644049971745574, -3.5496157331860445, 9.702406188567533, -7.574832588501394, 9.796433451870143, 2.157829321761511, -3.1218789726135014, 6.6756247366353705, -7.1588684345745435, -6.697268175137552, -1.4052090508045652, -1.9646060063565116, -5.4204105421624575, 3.32941670679557, -3.8499636318233144, -4.615352531498566, -0.07975953344401887, 3.391194367932755, -4.106358123047258, 1.501503218822819, 0.9563824343184066, -2.6973013366915453, 0.8798263076499495, -1.2664639901547048, 1.2677471291641744, 0.13775840341868673, -2.0083004655011223, 2.233635675897844, -1.9092080674585787, 1.3281780039048954, 1.7708225501106938, 0.11723884380987926, -0.7217945654510771, 0.020674104910288094, 0.6321921645490995, -0.12750860712933587, -0.7324806057772388, 0.387690081710673, 0.5704773577055064, -0.5561048571084157, 0.13303415142318897, -0.39533728660630274, -0.19314666767595423, -0.17136554860633169, -0.3105600644218782, 0.09227497024608411, 0.3640581811437116, 0.12456153887661969, -0.4900314009409783, -0.2105542507325282, -0.11287961723428896, -0.4896110545300445, -0.2576249538547408, 0.020036158749878297, 0.19004174677945684, 0.43512588848888356, -0.15984926722186188, -0.03699898168409543, -0.16184812575650298, -0.018640178199959223, -0.06970965394751483, 0.02644608400954951, 0.4184249457529603, 0.06710147780425979, -0.1455202420919477, -0.027435290436191195, 0.055771972451445606, -0.09475802435058256, 0.24207868559446766, -0.05282116924259128, -0.1882724966860181, -0.05346045629421603, -0.10831494984240475, -0.0036262226167114164, -0.026380022030597416, 0.020118181288705017, 0.03512820925391846, 0.029024371883522804, -0.050134402663047695, 0.01941571781524054, 0.00820689833365762, 0.059280726425585684, -0.07718365209846922, -0.05673269250273272, 0.03097365628437565, 0.0007247489018915587, 0.008388415516517256, 0.019782146741892603, 0.003491413958400358, 0.005668303566913835, 0.008251200563019978, 0.015433351818131769, 234403.8023855799, 51834.104197636894, 2327.7589646600154, -29568.79114184127, -2549.0686087371923, 5339.138147294799, -3405.91207443902, 1968.5889367093455, 276.4790741710631, -1889.8997981221407, -2394.1380334356495, 2023.6881482494782, -1935.7870245306426, -924.3130215614736, -2914.6781866024494, 52.560299992856926, -3273.219962197917, 416.33289037730674, -158.498854793745, -364.3346926910413, -263.4867956793919, -510.3455616915717, 435.8206420255862, -306.31429456541196, -1499.983995219564, -973.5229232422122, 1193.4318992772642, -383.8290224693024, 195.20511304206934, 172.57651787042164, 247.95307991027323, -146.25259788360245, 312.1238664528688, 82.0222218728702, 113.0371934431397, -9.836074747483806, 64.44883015334369, 261.2894866249492, -63.28785321640077, 63.76742578995527, -157.75100121111112, 108.2795110848127, 129.7215871524886, 65.98867569870882, 26.911244642223437, 61.57071340805953, -18.86470834487912, -144.40360771027895, -52.20750136849557, -35.42701390130807, 199.30863552572245, -14.78940602614307, 43.72641152238134, -87.83848700450486, -70.2454526044429, -6.616656205214042, -109.21292750305503, 56.597533951072506, 19.423047756960102, 34.34409129214316, -0.8578207922417391, -54.247552379074726, 27.130677209911823, 25.848199475776696, -18.034353071766105, -46.59814556893413, -22.207479226726896, 52.13840640068492, -3.9621369905786583, 47.828354022243786, -10.686096733523868, -34.33153122164099, 10.704419066595165, -25.66492755220043, 2.086672075371375, -21.606602861910943, -26.32174450651572, 24.38828599834499, 8.383046831603679, -16.82054922651561, -32.064618604337404, 4.422966559942751, 29.258143254804615, 10.619700621014061, 6.073847453512855, 3.76144348963453, 5.898811235436753, 9.638578975790267, 13.98794285407989, 20.615408001977656, -4.62848122154665, -0.08697632942201494, -0.20814929808992133, -9.027178409529796, -9.700996601365716, -10.015087843250349, -3.69181272068451, 7.871208063815438, 10.476351667828856, 3.736127772481126, 11.440097365507633, 2.1999630907092325, -7.262521215324482, 2.734569424707548, 1.3458622182458129, 2.869707485956905, -1.988320119333956, -3.614417424609634, 3.883584586732198, -1.957018076164843, -0.5074784019223628, 12.123101754337668, 0.8138378298945099, 6.9044489907142506, 1.5725752070159338, -2.89713366065088, -4.300588726857214, 1.9708390918669814, 1.1139925619477111, -1.6029813511871538, -3.3646275384275466, -1.2097515978045585, 1.224819485685936, -0.8975096350243348, -1.8624836396400806, -1.2456825446479591, 1.473258305152541, 4.556906948169768]",-5.204782608695651,-3.5391891891891896,-5.5,-3.87,1.0,CF,CN,100.0,PEDOT:PSS,Ca,6.0,6.0,0.95,11.23,56.2
"[-105631.73783275932, -74572.73247403272, 4329.753734020427, -2341.4243576849567, -5555.485216633641, -172.87819728700106, -798.6979620852667, 856.8010146047068, -1780.8026309386028, 649.5717848685752, 65.62447326392157, 388.30062073400836, -353.1258883999071, -137.697950651705, 31.52142203119479, -106.39355730444561, 81.98057692092414, -63.14138686604906, 66.8688432765725, -31.850017336689234, -14.562814664564094, -114.9941249091529, 19.27422754978045, 6.86920436049806, -13.362968611123335, -88.88424698589336, -9.680549433746734, -6.256532059762719, -19.287322586292646, 30.85187752382363, -0.060728621664203786, -1.7204165771485123, 18.096287928493183, -5.394264557244732, 40.036620565000476, -33.18107886987201, 2.1644049971745574, -3.5496157331860445, 9.702406188567533, -7.574832588501394, 9.796433451870143, 2.157829321761511, -3.1218789726135014, 6.6756247366353705, -7.1588684345745435, -6.697268175137552, -1.4052090508045652, -1.9646060063565116, -5.4204105421624575, 3.32941670679557, -3.8499636318233144, -4.615352531498566, -0.07975953344401887, 3.391194367932755, -4.106358123047258, 1.501503218822819, 0.9563824343184066, -2.6973013366915453, 0.8798263076499495, -1.2664639901547048, 1.2677471291641744, 0.13775840341868673, -2.0083004655011223, 2.233635675897844, -1.9092080674585787, 1.3281780039048954, 1.7708225501106938, 0.11723884380987926, -0.7217945654510771, 0.020674104910288094, 0.6321921645490995, -0.12750860712933587, -0.7324806057772388, 0.387690081710673, 0.5704773577055064, -0.5561048571084157, 0.13303415142318897, -0.39533728660630274, -0.19314666767595423, -0.17136554860633169, -0.3105600644218782, 0.09227497024608411, 0.3640581811437116, 0.12456153887661969, -0.4900314009409783, -0.2105542507325282, -0.11287961723428896, -0.4896110545300445, -0.2576249538547408, 0.020036158749878297, 0.19004174677945684, 0.43512588848888356, -0.15984926722186188, -0.03699898168409543, -0.16184812575650298, -0.018640178199959223, -0.06970965394751483, 0.02644608400954951, 0.4184249457529603, 0.06710147780425979, -0.1455202420919477, -0.027435290436191195, 0.055771972451445606, -0.09475802435058256, 0.24207868559446766, -0.05282116924259128, -0.1882724966860181, -0.05346045629421603, -0.10831494984240475, -0.0036262226167114164, -0.026380022030597416, 0.020118181288705017, 0.03512820925391846, 0.029024371883522804, -0.050134402663047695, 0.01941571781524054, 0.00820689833365762, 0.059280726425585684, -0.07718365209846922, -0.05673269250273272, 0.03097365628437565, 0.0007247489018915587, 0.008388415516517256, 0.019782146741892603, 0.003491413958400358, 0.005668303566913835, 0.008251200563019978, 0.015433351818131769, -82709.18376453029, -177053.887091128, 17385.246996450347, -12008.996396334642, 471.74484440957167, 539.025296524715, -7586.434815118555, 1982.3383461816338, 76.35927989830861, -391.866398905897, -407.8639976051945, 3182.3995236398832, -831.8679079674432, 1646.6831494436, 445.23374234275104, 753.6516651402981, -401.83100341008577, 847.5485630890666, 289.4487467800047, -207.8331362241853, 110.63756431066622, 1232.28303312094, -115.37948269531876, -126.27373906983405, -582.7362166805144, 123.50532358625321, 382.7861372499516, 50.3552846811677, -154.26518314300802, -287.1806742646925, -37.07080543806472, -159.4277795312404, -292.0220054727513, -8.408626745071842, 99.74950407650866, -2.652833761210445, -59.528428129393546, -138.48338125308533, -5.225604917838993, -36.20013613969388, -18.47876055073479, 13.391668434527901, -57.629970586466186, -13.35321892958352, 20.485352771070225, -89.335460908656, -59.51303345042882, 39.235891739102016, 46.341374599064665, -36.744430753694246, 67.15452076768199, 18.65048382811483, 5.130070234552306, 77.9704127105403, -25.185448016907685, -9.922347243610972, -16.56646029250723, -18.74431337837646, -1.249400111043201, 8.962463758649164, 16.90601324133111, -19.159626551874275, -24.579784073792553, -25.420737973247753, -4.660708965661087, 8.535062542377158, -4.539868361772395, -8.918151414485934, 15.289350819191254, 11.928686319363223, 3.6351177483217327, -12.996468001447749, 9.63041161370387, -1.1984373563013335, 2.0544100348993872, 20.75462811506489, 3.702709059341302, 3.082929493174582, 15.209158257770824, 5.658276000431272, 19.78900595549017, -4.9391141008217545, -5.660670877705066, 4.474028282389099, 2.2628658504939665, 6.669459374363768, 9.631099164052678, -3.183620194506304, -6.228647758210535, -1.5871312583325476, 2.790625913841808, 7.211391151222287, 2.1642001382668923, -5.172644490731244, -2.994720490937951, -3.7066555622470645, 15.720432179598184, 1.9267785250127893, -5.36456194005501, 6.127909645726589, 2.4795684470283526, 4.923292345223789, -4.232618642290241, -1.549934467326696, -3.082376133044434, -2.162794975882221, 0.4287941183104458, 1.0018589409025793, -3.4659133639154405, -6.102408785107642, 3.339238635631631, 4.170678223108837, -3.13088155254421, 4.41576290563907, -1.714390238721891, 3.257979628212496, 1.9284620070770728, -0.669698408801878, 3.6993362469323756, 1.0027067704220514, 4.2326655514640095, 1.970846692935142, 2.8227028060239014, 0.29970006932884985, 2.241392113518568, -1.089000613389075, 1.5529512230186384, 2.0223132588937958]",-5.204782608695651,-3.5391891891891896,-5.67,-3.79,0.714,CF,_,100.0,PEDOT:PSS,PDIN,7.63,7.63,0.85,16.33,55.0