DA_mordred_pca,HOMO_D_eV,LUMO_D_eV,HOMO_A_eV,LUMO_A_eV,D_A_ratio_m_m,solvent,solvent_additive,annealing_temperature,hole_contact_layer,electron_contact_layer,PCE_percent,calc_PCE_percent,Voc_V,Jsc_mA_cm_pow_neg2,FF_percent
"[-96218.45766618998, 38190.55941397739, 9341.19863978244, -298.0321681723599, 3837.039845288656, -633.0815150821412, -1318.980794355729, 952.285808193773, 528.6042339012306, -265.75996339509254, 85.60403763240663, 327.51410203292335, 339.9238825739942, -217.3938336123946, 80.63195135367053, -89.32083633853233, 32.19492584684396, -21.519530699055707, -3.6266113552724115, -73.04368468656011, 86.79421267883791, 28.9157151412623, 61.36551771993493, -20.29937758864763, -20.5145225649866, 1.7418865694839667, -22.377181673057002, 12.371971410300219, 34.95291732805864, 10.187903617561325, 15.16604348820858, 8.612060636243209, -1.1743635221400766, 7.0376682218726625, -4.093627003889395, 9.922048209550361, -15.554840299560915, -5.613674452998811, -0.2972665085945745, 4.368352481075529, -3.6043195792310403, 1.354200703685919, 2.8516893216669104, -4.255469010620061, 8.299974464104451, 1.2791418187815111, 1.2654639155740988, -2.171801897186288, 0.7563528622149089, 1.6309678283868045, 0.8461705305940708, 3.200150728577338, 4.514637663770485, 2.047832060332592, 0.988495732690156, 3.0209744065138135, -1.0787642655477623, -0.5848165573459294, 0.7450505682325215, 0.7138952097940852, -0.4513392507860554, 0.44000043161623736, 0.9076636698868725, -0.7553614212014921, -1.1367214236829248, 1.4883333004282742, -0.6534390261587824, -0.2020478861539523, 0.5979438493412772, 0.35044047212350127, 0.5920200016964907, -0.4545510567545348, 1.2436977886366634, 0.06188974879205844, 0.28770923066137755, 0.34025436763747585, 0.054350949740208376, 0.15963437295462057, -0.5109982693033068, 0.3735134387368202, 0.6870145153430531, 0.38216412404326583, -0.20553217795980494, -0.08297866327442271, -0.09481622405384194, -0.0074888306561717854, 0.442508262678758, 0.06098427500299941, -0.4139541096843904, 0.14832844029545988, -0.294554145147611, 0.015892796356977712, 0.1548609075275289, -0.005654655004061704, 0.07842930267586645, -0.20841896255037717, 0.07855635365402769, 0.01820150849557578, 0.012441639298426566, -0.05940224021880214, 0.12084591158474112, 0.026787833651969892, 0.019668535058581682, 0.05537380493890609, -0.03933624965050253, 0.009307974571203914, -0.023474896973407267, 0.020049719383548492, 0.003215210697313786, -0.04194589694978035, 0.04089452902605473, 0.02749361263995076, -0.07262298298187164, 0.015379054954234306, 0.0506532373375812, 0.01506994111025417, -0.02377975685210143, 0.009711782809699865, -0.04845640783987859, 0.03322037544939782, -0.008444174408285043, -0.002255075440015908, 0.022455666638478533, -0.005795103590370054, 0.02421124183525336, 0.01760123567103644, -0.016655303062377946, 0.018813816162650987, -22649.07239099042, 6512.473230929598, -38957.58552949668, 5705.395395272253, 5710.78338073723, 10386.447973255259, 4056.1931115356883, 2722.1778719436984, 985.5531410964686, -4726.524625456472, -2266.747309832075, -1641.749438827849, 4242.876903924136, 2057.788930668735, -1125.2076085081655, 1342.613104007883, -358.07276076985306, 894.5096374738156, -337.39421801731135, 455.15872163068525, 535.6703173340852, 930.6251667001371, 972.0509960841007, 357.8248648869328, 81.97424977022848, 1009.3187299865143, -45.11666407916446, -733.1327593013921, -131.68435397486255, 604.5987282574621, 191.72107838275915, 347.06417401379605, -354.09561989215575, -295.9489840646635, 48.2748446283418, -265.0372922764768, -264.93180969296316, 60.313423112596624, 217.3759335197127, -184.43349750626587, -47.646974667026385, 60.413628858473, -31.01811902391084, -100.49443102482144, -24.935286512136322, 46.1306797744643, 67.0800241403351, -22.57317647135587, 21.314678905721447, -140.7666607044548, -43.266822451923176, 74.82184380125662, -29.602624064538574, -2.8259944519708426, -30.18816686246668, -3.0206583445682185, -30.560617933690484, -38.15235917114508, 9.397441446238616, 3.074387298907233, 33.88579425055426, 4.13227082284822, 29.135508427254234, -20.965383662242395, -1.838980258231782, -24.318974005186938, 22.427960943616863, -9.575342628240204, -3.7433016481851293, -15.987479324450836, 3.5426686264180827, -20.693463405713885, 3.9356710331700473, -3.4274529365412114, 11.017824439074305, 5.109221419216151, -16.72047440392422, -5.1620198487414575, -16.153167822774225, 0.007715655371402619, 7.40210737338661, 12.572626037483078, -2.3772835972893915, -1.8112420601056094, -5.343033846993347, -2.9835265957067545, 0.37710087554300475, 5.352940271326961, -8.063544954871997, -0.9828855042935216, 4.334211536898237, 3.9458379558057146, 9.992560803979408, 8.853284872868528, -3.62578489394667, 2.7385547910883257, 0.9079595702270149, -0.8086602596389758, 9.451036209432711, -4.471556747287291, -4.058470411069884, 2.5920971639088775, -0.8222672741236847, 7.834342941101164, 0.1507182412701269, -6.853180741350561, -0.80762737869735, 1.0589092049323767, 3.6434371144150237, -5.000979321130341, -1.0448260472106279, 10.680213608705532, 2.8334011962576966, -0.5244281908757067, 2.027467176937878, 2.807884184612085, -0.5889302329212676, 2.4421565810679025, 4.730788738418924, -0.31145905670311613, 0.38255573930635123, -0.3265098325218969, 0.2961572412420921, 3.217157424196018, -2.3338705569407816, -2.0279261621837787, -1.843352930790621, 1.5995032589173288]",-5.297714285714285,-3.4170000000000003,-5.2,-3.95,1.0,CF,_,100.0,PEDOT:PSS,ZrAcAc,11.2,11.25,0.69,22.9,71.2
"[-71807.11354197352, 75063.5054328808, 3574.7017711960925, 10286.768621749594, -7092.245427815702, -3943.174926531591, 803.1822645839118, -1316.1809098191125, -3272.657939044232, -1587.0756147239908, 2966.6936882530126, 1417.6412427167375, -691.8163734826923, 1979.292445050341, 146.66788905643966, 599.635188366082, -1586.8718147918694, 1326.3661878925986, 1216.6660382432738, 286.06078041177386, 1289.5133296310428, -615.0530842028209, -185.16061177048618, -71.86225353363267, -60.607068890095945, -390.95621321241174, -821.1351248208521, 1106.953023287117, -583.2782028417046, 164.2229408970558, -506.65408848763934, 667.5031911809078, 285.06324729270443, -15.500385771138468, -85.78549516396674, 89.04718999841361, 31.57083460018694, 119.14015080470136, -91.67915143192853, -134.35154607767274, 91.46933655780981, 96.04660663069771, 31.862348546370697, -1.4732099911637988, 98.3323636835762, 44.54825992153164, 102.80487863444894, -80.49934156657508, -0.9864501526280662, -10.231842603402129, 125.85759059168302, 45.90831041070398, 3.505682366371957, -63.713162796785156, -26.552678637376445, -21.79533841264309, -14.451290278604407, -69.63642322990799, -1.0221081164012276, -49.22278091856896, -21.30631882781203, -34.55777319078385, -22.17422736890296, 4.301668048181909, 11.776022013150879, -14.825283439626766, 53.02629905779531, 27.35693457640302, -16.206239402824735, -24.08263644106426, 7.044099884761366, 15.691604380477514, 2.147932344824863, 3.5057465288951732, -23.698552608632127, -1.3500875353929302, -11.800406107280331, 0.5719691389196964, 14.980424823035985, 7.711871004692156, 2.0197651307315994, 5.552491605377497, -19.809163154105903, 4.053183369952059, 15.298216905733128, 5.569632115748163, 6.637470148511884, 8.719263757057206, 6.769801638049575, 5.063762403659631, 1.5236034920582142, -6.696590198803513, 1.4099285938193518, -7.2688180881344024, 0.478503117841548, -0.48691715010733105, 5.494323132896555, 2.1412702606661043, -1.7157485625799964, -5.7950591963405955, -0.8397380888350767, -6.1752485143102005, 1.7325375397776455, 1.3975949062470931, 5.3163956293797865, 4.194716807905017, 3.930047740267142, -3.351600660954386, -0.538283273906508, 0.08240578096003759, 0.5965658526577826, -0.4965143294395169, -2.3386347642197194, -0.2019025250743418, -0.7973484410467506, -0.7510673205351353, -1.2888360208133562, -0.24639360533640264, 0.3488224727599558, 0.17159186517214486, 0.4718180131141878, -1.0954637235355804, 0.42709963754918867, 0.7858499645581034, 0.551646671539288, -0.11736728537396601, -1.1044276119817642, 0.24467227064285169, -37739.0311895982, -19224.57952610387, -14526.348693264765, 5017.188838189108, -2519.434020590868, 859.5670945504157, 1226.1890877495516, -1146.5248105844555, 78.02688090112093, -1038.8145778190733, -427.62540473741024, 785.3340743574003, -747.4716492579316, 152.30286910053724, 28.418027994910602, 1802.9224069836816, 86.27285794606613, 289.9926243615531, 694.5567434570421, -53.55755066880138, 181.05963782528272, -667.7317703468568, -483.3695880248599, 70.87305014189369, 160.15367373334288, 114.36097731448439, -188.53403730614104, -8.712004105917377, -45.551350001341575, -0.9707843761266588, 117.48040413253362, 192.96991159316798, 236.52690266616963, 171.6318077363674, -103.04483431815099, 241.8238260314708, 116.05737771087249, 205.87239854232018, -117.77117135319735, -207.5516937631533, -175.0254482747325, -18.03405196565886, -106.49460773679681, -4.6889445265974, 25.278333768419756, 4.916477026145781, -4.809098892702853, 35.3700069222147, -40.346614396257536, -58.65052581420084, -8.833573347617502, -26.357931542537244, 11.677743666669187, -10.162665427738517, -21.643717461028004, -11.266361464549298, -13.314383350596778, 8.147623830084257, -1.6042819326886502, 6.714382870089651, -5.948246121265974, -3.2628977408539406, 21.51826354432119, -7.650218047155867, 1.058015516400161, 8.127023008422057, -6.493046717936828, 2.67635265235338, -5.325156941314324, -1.2329356617706644, -8.824677126275207, 1.9732437598413077, -7.008113027786656, 8.992743927256079, -6.854808229185923, 1.995110160872379, -4.9361992580605545, -2.890475700619845, 3.9479472645494162, -3.8968451920545704, 7.035564818906373, -3.1509848445803446, -5.614089928951064, 5.935901292210769, -0.06840438664595894, 1.0097439198674731, 0.4350028672285795, -3.7037319000312543, 2.821531236254426, 0.18758726311363816, 1.0242621020560598, 1.0900520460311114, -1.280204663913537, 0.016072486406685016, -1.117028882604579, 0.736547870970214, -0.294379940696631, 1.275388606689468, 2.3624233407860595, 0.6241319828746725, -1.3098556136817834, -2.323411576981389, -0.5809258622139968, 1.9540977974617277, -0.3340603768182753, -1.1847736297302267, -2.3869307728168994, -0.47964212846414744, 1.4244252902113743, -0.1940201680357312, 0.17736556949606896, 1.142328033681018, -1.756349669008248, -0.43679341942591265, -1.076580827478546, 1.616618491195199, -1.0175691133099924, -0.22262293293508106, -1.009064177281811, 0.06441851584274616, 0.1245818743738294, -0.8701494008856447, -0.22432538507920396, -0.26032237543350556, -0.5417281845118613, 0.6597838540923835, 0.3483195260254739, 0.4711695942020935]",-5.45,-3.5,-5.49,-3.85,1.0,CF,_,130.0,PEDOT:PSS,PDINO,10.4,10.3,0.88,16.49,71.0
"[-96218.45766618998, 38190.55941397739, 9341.19863978244, -298.0321681723599, 3837.039845288656, -633.0815150821412, -1318.980794355729, 952.285808193773, 528.6042339012306, -265.75996339509254, 85.60403763240663, 327.51410203292335, 339.9238825739942, -217.3938336123946, 80.63195135367053, -89.32083633853233, 32.19492584684396, -21.519530699055707, -3.6266113552724115, -73.04368468656011, 86.79421267883791, 28.9157151412623, 61.36551771993493, -20.29937758864763, -20.5145225649866, 1.7418865694839667, -22.377181673057002, 12.371971410300219, 34.95291732805864, 10.187903617561325, 15.16604348820858, 8.612060636243209, -1.1743635221400766, 7.0376682218726625, -4.093627003889395, 9.922048209550361, -15.554840299560915, -5.613674452998811, -0.2972665085945745, 4.368352481075529, -3.6043195792310403, 1.354200703685919, 2.8516893216669104, -4.255469010620061, 8.299974464104451, 1.2791418187815111, 1.2654639155740988, -2.171801897186288, 0.7563528622149089, 1.6309678283868045, 0.8461705305940708, 3.200150728577338, 4.514637663770485, 2.047832060332592, 0.988495732690156, 3.0209744065138135, -1.0787642655477623, -0.5848165573459294, 0.7450505682325215, 0.7138952097940852, -0.4513392507860554, 0.44000043161623736, 0.9076636698868725, -0.7553614212014921, -1.1367214236829248, 1.4883333004282742, -0.6534390261587824, -0.2020478861539523, 0.5979438493412772, 0.35044047212350127, 0.5920200016964907, -0.4545510567545348, 1.2436977886366634, 0.06188974879205844, 0.28770923066137755, 0.34025436763747585, 0.054350949740208376, 0.15963437295462057, -0.5109982693033068, 0.3735134387368202, 0.6870145153430531, 0.38216412404326583, -0.20553217795980494, -0.08297866327442271, -0.09481622405384194, -0.0074888306561717854, 0.442508262678758, 0.06098427500299941, -0.4139541096843904, 0.14832844029545988, -0.294554145147611, 0.015892796356977712, 0.1548609075275289, -0.005654655004061704, 0.07842930267586645, -0.20841896255037717, 0.07855635365402769, 0.01820150849557578, 0.012441639298426566, -0.05940224021880214, 0.12084591158474112, 0.026787833651969892, 0.019668535058581682, 0.05537380493890609, -0.03933624965050253, 0.009307974571203914, -0.023474896973407267, 0.020049719383548492, 0.003215210697313786, -0.04194589694978035, 0.04089452902605473, 0.02749361263995076, -0.07262298298187164, 0.015379054954234306, 0.0506532373375812, 0.01506994111025417, -0.02377975685210143, 0.009711782809699865, -0.04845640783987859, 0.03322037544939782, -0.008444174408285043, -0.002255075440015908, 0.022455666638478533, -0.005795103590370054, 0.02421124183525336, 0.01760123567103644, -0.016655303062377946, 0.018813816162650987, -38522.85399920114, -33859.07011485107, -20342.706828396906, 9775.316361509857, 1460.4013446432787, 5047.080816940209, -11444.363366127614, -2547.25436246748, 2153.7160624507187, 4850.24705186438, -481.1248126939074, -1246.9683630136306, -1238.4650883208492, -2868.106469585593, 5360.7004534781045, -2065.015332387691, 3687.6638611440294, 3701.5838350555755, 1583.2605053289458, 1751.6266818381523, -1136.7009151697357, -1677.111048050867, 815.1486166752458, 2494.2759179056507, -190.0445777039171, -146.7064893011849, -969.3696327056525, -531.3358571623894, -792.6181293194422, 1737.7932187867254, 443.0013391498918, 449.95318179408724, -612.6505608492585, 231.20146587319283, -9.347250485805404, 419.69598070114245, -5.298698493434912, -649.1499467663697, 348.2949070790474, -390.2743456260279, -377.24802870681293, -16.058987041777037, 245.07609547845922, 230.60306016871837, 391.1941980750422, 200.21675898102396, -26.354915696230098, 155.09379293349832, 151.97769317316897, 17.753765557025133, 10.512300942864437, -81.90591593129922, 246.59297268326154, -0.5621492451203949, 121.67429175799262, 3.3198269053793723, -19.00422972378841, -54.526863114639944, -60.91779195069793, 81.29955719774257, 26.85530595737371, -54.018401107056626, -16.855580403971267, 36.86564473136937, -59.323804120601125, -83.07038613061744, -39.64220400241813, -33.78578415770784, 65.0668241865445, 78.30196928667891, 2.214228245194496, 9.976745257909672, 29.95896479714266, -37.00419255664538, 12.27389876256703, 19.198974932774064, -3.745886112244497, 21.18456636868389, -2.895294653051625, 19.550482144284643, -19.494792304186753, -11.749543213558104, -1.1804542490442396, -1.8334882445307237, -5.790314733105141, 14.348496625608306, 3.5040943737325545, -7.5103660452905725, -15.361877139724438, -8.181849960512878, -9.164472820285734, 8.554737091173902, 6.4204896991933005, -1.0364207601892197, 1.6324606130990809, 8.15135780457005, 2.588868175984431, 6.15277531171147, 1.8701259007769897, -6.745117203010322, 2.1311263629362003, -8.94393196233785, 6.213183647326824, -0.762795055519959, 1.4916714478859059, -1.1156391153929732, -2.818904993262085, -6.829490344633437, 1.5768594004139498, -6.062643032235155, 3.0563100347757155, -1.8098823036219471, 3.922478756198016, -2.071753740513328, 0.7209764427076392, -3.1867903028885447, -1.8647736141364923, -0.2826994019292428, -0.047244643027344324, 1.7276809542621017, -0.4370463909962421, -0.5556226969024336, 1.7252907413797627, 0.7979094144613539, 1.0494849326417226, 1.2214023702924783, -1.8447968418150111, 2.480875633173553]",-5.297714285714285,-3.4170000000000003,-5.67,-4.03,1.0,CB,DIO,120.0,PEDOT:PSS,PFN-Br,8.4,8.43,0.85,14.8,67.0