DA_mordred_pca,HOMO_D_eV,LUMO_D_eV,HOMO_A_eV,LUMO_A_eV,D_A_ratio_m_m,solvent,solvent_additive,annealing_temperature,hole_contact_layer,electron_contact_layer,PCE_percent,calc_PCE_percent,Voc_V,Jsc_mA_cm_pow_neg2,FF_percent
"[-113112.0221877825, -128040.17814553897, -10298.628999373548, 3432.733628547574, 8973.419698991387, -3439.282848851566, 3781.954798850272, -829.6176407827634, 1085.3982123472952, 550.4456547111608, -435.8864607518108, -710.2243801656157, 1326.1626490602139, 8.665554309145136, -418.74269954022566, 187.45956881819745, 121.28409340748124, -4.298184849417794, 8.490690881116162, 52.913455571291934, 87.8658439058351, 43.51987937221628, 44.34062644746041, -49.48592701393579, 33.90433203557939, 4.676946288832141, -8.072828067571379, 10.567251849407967, -111.51899092106515, 28.525996512887673, 100.06773607887192, 12.062822784303606, -5.263110840715456, 7.512175011148145, 1.3785293027879106, 16.635643035520957, 4.039764278740535, -24.845372606161163, -22.45639579757742, 5.826741130519196, -0.7521496402381729, 12.53019855668316, -4.796028348520849, -8.538919188446641, 0.6386535221417375, 0.28586521885279126, 3.6235228381428186, -2.3848029517721017, -2.8923507347754054, 4.7855121583618825, 4.964071798130007, -3.784341510985911, 2.078751210970445, -0.29178313050513793, -1.7735955457794503, -3.129511596315538, 1.0268372421283374, -6.771806284949676, -0.36009360913607225, -0.2885819863777215, 0.7901843974181446, -4.113908987537911, -1.4204402500640185, -1.319936024894119, 0.9505850971635255, 0.3919987624149357, -1.1826527991339901, 0.25278811590131767, -0.10244841765984347, -0.06963895121972996, -0.3177515931384107, -0.252237779743524, 0.3418882282524356, -0.025334246562977114, 0.6085323469659869, -0.08140436503745718, -0.052060392777136144, -0.37716527456960947, 0.622708357653387, 0.7512702289248097, -0.18664277121496298, -0.4686124080250025, 0.11033475969473727, -0.17570642990008523, -0.01191175014561452, -0.5637582343619982, -0.15994847323332984, -0.4211786166219582, -0.07485781839410688, -0.23597185487598793, -0.10873839156025156, -0.12014790117991936, 0.17783780040360142, -0.16002430739202889, -0.04013287387633824, -0.3283820317790074, -0.14723447861628003, -0.013208994816466202, 0.10783506653254449, 0.02054895260968026, 0.0038103610396120757, -0.03785315965532643, -0.013199411282162288, -0.07276953001481701, 0.05509625405750462, -0.04625759139159413, 0.04027683863420606, -0.0025516021335834083, 0.03001469427361414, 0.09321320428330893, 0.06018147875735025, -0.03890482007976459, 0.055154607055641236, 0.0315222130303745, -0.0697597739780349, -0.024930229612809995, -0.01225032381139357, 0.015968003371716222, 0.02773925890596729, 0.0066110138903283655, -0.025875302652229593, 0.0026188898131849214, -0.006174358951955394, 0.01351968740192433, -0.0167749891402309, 0.027379330332195195, -0.004039592793215974, -0.00318420795111507, 88560.81626362221, -128810.52939914333, 19870.98921016884, -16874.25078812293, 2398.794352918502, 4141.087276265804, 5967.264654438723, 3980.9906947590107, -7234.320336840394, -676.9093653174551, 360.9867724843907, 178.13005830411657, 964.1877893110611, -3076.629016761799, 1921.1765823835146, -1037.7619484696302, -1315.2263383642717, -686.0789784097196, -2123.932141925375, 705.94465271955, -1655.4589454354536, 146.42134943433234, 158.42293111183977, 707.1923673021834, -86.63689235715174, 1167.9079076493445, 119.10463415682818, 141.62451594334524, 100.67138562361595, 129.12148094362206, -287.55449704935484, -300.99071823369053, 308.0615100132583, 488.8227691347603, -68.4526761159456, -82.29555433958821, 64.03015211270423, -240.79752767964985, 338.908176937285, -154.401592626797, 58.41176910786162, 95.74465113838446, -218.4523213418106, -25.659674140542137, 3.6717608897731893, -407.61976380113236, 340.46978132555296, -119.23141905934128, 56.787106318156134, 94.84907669798262, -205.7553579975341, 127.38784872142338, 193.89571322780816, 18.9420647316081, 16.9068119686018, -84.12601955086535, -137.90090492061546, 37.78507641736638, -26.692491135439468, 1.2702808554791432, -69.64068096943569, -10.20129410027901, 15.606892339738351, 71.28044600296386, 106.1508064077583, -1.503959014660122, 8.10746614538992, -2.595811680746923, 13.90577723849924, -22.884365928464305, 9.201895768095753, -42.09703368750429, -32.07803584786714, 36.37481811732572, -4.960781632977282, -9.14990976651454, -3.046936690416665, 19.354818635604794, 24.261162481556724, -15.08358108549858, 0.9501927049810828, -5.463182698750877, 5.024575026026795, 4.200333405520027, 3.2932110780392776, -5.866866738556411, -17.734848095625086, -3.4882706548255697, 5.916450831742626, -0.8550207029849233, -0.3351393699151899, -3.156630635507298, -8.39836691332858, -1.883193223486714, 14.414576148130948, 2.297447206728471, 3.51132984679559, -7.318904323030944, -2.7887896977147317, -3.8255956481909976, 1.04915120912014, -12.868474031803576, -6.201350978312731, 12.352857827799614, 4.326406098192756, -1.783267264039383, -1.9439179008968743, -0.12238698641166756, 12.677958259449076, -9.835927826521853, 8.34084106585414, -1.3632631493669862, 6.896977299945007, -1.0598366796335483, -9.319600664988425, 5.719180255565725, -0.22018522788076922, 1.126861128965146, 5.721627400081324, 3.0617014732695615, -2.7531250270176906, 0.5145635527378563, -0.20147180953047794, -3.100415917042003, -0.23282207747631745, 3.829961062074899, 12.476376918149192, -6.108515849358657]",-5.057777777777777,-2.989444444444445,-6.38,-3.98,0.833,o-DCB,_,25.0,PEDOT:PSS,Ca,6.11,6.11,0.9,10.78,63.0
"[-105631.73783275932, -74572.73247403272, 4329.753734020427, -2341.4243576849567, -5555.485216633641, -172.87819728700106, -798.6979620852667, 856.8010146047068, -1780.8026309386028, 649.5717848685752, 65.62447326392157, 388.30062073400836, -353.1258883999071, -137.697950651705, 31.52142203119479, -106.39355730444561, 81.98057692092414, -63.14138686604906, 66.8688432765725, -31.850017336689234, -14.562814664564094, -114.9941249091529, 19.27422754978045, 6.86920436049806, -13.362968611123335, -88.88424698589336, -9.680549433746734, -6.256532059762719, -19.287322586292646, 30.85187752382363, -0.060728621664203786, -1.7204165771485123, 18.096287928493183, -5.394264557244732, 40.036620565000476, -33.18107886987201, 2.1644049971745574, -3.5496157331860445, 9.702406188567533, -7.574832588501394, 9.796433451870143, 2.157829321761511, -3.1218789726135014, 6.6756247366353705, -7.1588684345745435, -6.697268175137552, -1.4052090508045652, -1.9646060063565116, -5.4204105421624575, 3.32941670679557, -3.8499636318233144, -4.615352531498566, -0.07975953344401887, 3.391194367932755, -4.106358123047258, 1.501503218822819, 0.9563824343184066, -2.6973013366915453, 0.8798263076499495, -1.2664639901547048, 1.2677471291641744, 0.13775840341868673, -2.0083004655011223, 2.233635675897844, -1.9092080674585787, 1.3281780039048954, 1.7708225501106938, 0.11723884380987926, -0.7217945654510771, 0.020674104910288094, 0.6321921645490995, -0.12750860712933587, -0.7324806057772388, 0.387690081710673, 0.5704773577055064, -0.5561048571084157, 0.13303415142318897, -0.39533728660630274, -0.19314666767595423, -0.17136554860633169, -0.3105600644218782, 0.09227497024608411, 0.3640581811437116, 0.12456153887661969, -0.4900314009409783, -0.2105542507325282, -0.11287961723428896, -0.4896110545300445, -0.2576249538547408, 0.020036158749878297, 0.19004174677945684, 0.43512588848888356, -0.15984926722186188, -0.03699898168409543, -0.16184812575650298, -0.018640178199959223, -0.06970965394751483, 0.02644608400954951, 0.4184249457529603, 0.06710147780425979, -0.1455202420919477, -0.027435290436191195, 0.055771972451445606, -0.09475802435058256, 0.24207868559446766, -0.05282116924259128, -0.1882724966860181, -0.05346045629421603, -0.10831494984240475, -0.0036262226167114164, -0.026380022030597416, 0.020118181288705017, 0.03512820925391846, 0.029024371883522804, -0.050134402663047695, 0.01941571781524054, 0.00820689833365762, 0.059280726425585684, -0.07718365209846922, -0.05673269250273272, 0.03097365628437565, 0.0007247489018915587, 0.008388415516517256, 0.019782146741892603, 0.003491413958400358, 0.005668303566913835, 0.008251200563019978, 0.015433351818131769, 39285.016283231336, 168923.50714010204, 6692.661333081747, -623.8481348543755, -11282.216270041888, 672.7034341247689, -3773.6577380676354, 2460.5364140221773, 4659.2479117898, 1121.2099683539323, -5457.8674845245405, -1377.1010348660102, 1300.4174367058592, 184.47931125306286, -975.0137152510817, 538.1527008616265, -2119.8443555451045, -1762.4418601023435, -2949.327869298887, 1510.8263395947356, 298.629217883195, -66.43030787664134, -884.5872577058223, -687.6778137904473, -848.8943483155285, -1297.7915782407824, -631.2190136672322, -746.3865500371588, 535.1505191614069, -469.9573561569745, 379.5074769071978, 488.6691723365301, 55.49231602452403, 226.51861182243692, 297.15725010526774, 370.4253870683623, 111.49972469115721, -240.27805464195012, 320.8994029647249, 349.86267215411937, 109.64900479019778, 238.79459017120104, 65.49158504157185, 155.2943384497957, -13.31576675841103, 238.01797004832343, -14.065663935549338, 110.86304579972261, -62.85856735131475, 13.56907122120495, -160.20666433518412, -169.35975039385494, 22.466183564297353, 61.138281423012785, 16.56648706110309, -131.70877066292093, -65.736270484187, 46.27390115399626, 7.101511645102619, -36.58811598254238, -26.8419503458706, 10.650774234806725, 6.270259023160236, -8.647353901310694, 11.704772933021047, -26.189727230346637, 17.01585970578662, -5.4368307869787245, -5.065092093808289, -12.250449064967256, 25.16794145061121, 4.352610743422529, 19.92249486853342, 29.314637810323426, 15.189888535604874, 0.8450034331712288, 4.421397393697752, 7.111165604160526, 14.351844809438916, 6.8347597001483535, 11.918261131463531, -23.05244415821258, -2.800649654461896, -1.9678738767987909, -13.977302050480276, 21.524211473267506, -0.35552082968269616, -11.812042374609916, 2.013952785379299, -15.54560997237705, -12.455970599556679, 4.215968396460852, -1.2283663570268573, 3.9721783764901772, -3.676394656031505, 0.1780764305401661, 6.0030843736215616, 3.851354296256961, -4.789047445220827, 0.7626775464972582, 14.617371112954402, 0.47755562061792745, -9.28077480159417, -0.2307397068892385, 2.9559552614073397, 9.361177412947486, -7.56014632375291, 3.702362566070459, 2.820104760057853, 8.35357814285102, 0.34583787113433573, -2.1229740094943352, 3.7023777696936975, -1.526925358208132, 1.8422034478548177, 4.78833510095923, -1.3098970969988528, -4.582049985624945, 1.4024544878043983, -0.23934038597553808, 5.021315661739019, -5.067759474606808, -3.3198668231134683, -2.399716340846691, -1.3001890929438265, -0.988791367538731, -1.6358069589085886, 1.3331476812954648]",-5.204782608695651,-3.5391891891891896,-5.31,-4.1,0.667,DCB,DIO,25.0,PEDOT:PSS,C60-bissalt,10.21,10.21,0.76,21.92,61.3
"[-96218.45766618998, 38190.55941397739, 9341.19863978244, -298.0321681723599, 3837.039845288656, -633.0815150821412, -1318.980794355729, 952.285808193773, 528.6042339012306, -265.75996339509254, 85.60403763240663, 327.51410203292335, 339.9238825739942, -217.3938336123946, 80.63195135367053, -89.32083633853233, 32.19492584684396, -21.519530699055707, -3.6266113552724115, -73.04368468656011, 86.79421267883791, 28.9157151412623, 61.36551771993493, -20.29937758864763, -20.5145225649866, 1.7418865694839667, -22.377181673057002, 12.371971410300219, 34.95291732805864, 10.187903617561325, 15.16604348820858, 8.612060636243209, -1.1743635221400766, 7.0376682218726625, -4.093627003889395, 9.922048209550361, -15.554840299560915, -5.613674452998811, -0.2972665085945745, 4.368352481075529, -3.6043195792310403, 1.354200703685919, 2.8516893216669104, -4.255469010620061, 8.299974464104451, 1.2791418187815111, 1.2654639155740988, -2.171801897186288, 0.7563528622149089, 1.6309678283868045, 0.8461705305940708, 3.200150728577338, 4.514637663770485, 2.047832060332592, 0.988495732690156, 3.0209744065138135, -1.0787642655477623, -0.5848165573459294, 0.7450505682325215, 0.7138952097940852, -0.4513392507860554, 0.44000043161623736, 0.9076636698868725, -0.7553614212014921, -1.1367214236829248, 1.4883333004282742, -0.6534390261587824, -0.2020478861539523, 0.5979438493412772, 0.35044047212350127, 0.5920200016964907, -0.4545510567545348, 1.2436977886366634, 0.06188974879205844, 0.28770923066137755, 0.34025436763747585, 0.054350949740208376, 0.15963437295462057, -0.5109982693033068, 0.3735134387368202, 0.6870145153430531, 0.38216412404326583, -0.20553217795980494, -0.08297866327442271, -0.09481622405384194, -0.0074888306561717854, 0.442508262678758, 0.06098427500299941, -0.4139541096843904, 0.14832844029545988, -0.294554145147611, 0.015892796356977712, 0.1548609075275289, -0.005654655004061704, 0.07842930267586645, -0.20841896255037717, 0.07855635365402769, 0.01820150849557578, 0.012441639298426566, -0.05940224021880214, 0.12084591158474112, 0.026787833651969892, 0.019668535058581682, 0.05537380493890609, -0.03933624965050253, 0.009307974571203914, -0.023474896973407267, 0.020049719383548492, 0.003215210697313786, -0.04194589694978035, 0.04089452902605473, 0.02749361263995076, -0.07262298298187164, 0.015379054954234306, 0.0506532373375812, 0.01506994111025417, -0.02377975685210143, 0.009711782809699865, -0.04845640783987859, 0.03322037544939782, -0.008444174408285043, -0.002255075440015908, 0.022455666638478533, -0.005795103590370054, 0.02421124183525336, 0.01760123567103644, -0.016655303062377946, 0.018813816162650987, -82709.18376453029, -177053.887091128, 17385.246996450347, -12008.996396334642, 471.74484440957167, 539.025296524715, -7586.434815118555, 1982.3383461816338, 76.35927989830861, -391.866398905897, -407.8639976051945, 3182.3995236398832, -831.8679079674432, 1646.6831494436, 445.23374234275104, 753.6516651402981, -401.83100341008577, 847.5485630890666, 289.4487467800047, -207.8331362241853, 110.63756431066622, 1232.28303312094, -115.37948269531876, -126.27373906983405, -582.7362166805144, 123.50532358625321, 382.7861372499516, 50.3552846811677, -154.26518314300802, -287.1806742646925, -37.07080543806472, -159.4277795312404, -292.0220054727513, -8.408626745071842, 99.74950407650866, -2.652833761210445, -59.528428129393546, -138.48338125308533, -5.225604917838993, -36.20013613969388, -18.47876055073479, 13.391668434527901, -57.629970586466186, -13.35321892958352, 20.485352771070225, -89.335460908656, -59.51303345042882, 39.235891739102016, 46.341374599064665, -36.744430753694246, 67.15452076768199, 18.65048382811483, 5.130070234552306, 77.9704127105403, -25.185448016907685, -9.922347243610972, -16.56646029250723, -18.74431337837646, -1.249400111043201, 8.962463758649164, 16.90601324133111, -19.159626551874275, -24.579784073792553, -25.420737973247753, -4.660708965661087, 8.535062542377158, -4.539868361772395, -8.918151414485934, 15.289350819191254, 11.928686319363223, 3.6351177483217327, -12.996468001447749, 9.63041161370387, -1.1984373563013335, 2.0544100348993872, 20.75462811506489, 3.702709059341302, 3.082929493174582, 15.209158257770824, 5.658276000431272, 19.78900595549017, -4.9391141008217545, -5.660670877705066, 4.474028282389099, 2.2628658504939665, 6.669459374363768, 9.631099164052678, -3.183620194506304, -6.228647758210535, -1.5871312583325476, 2.790625913841808, 7.211391151222287, 2.1642001382668923, -5.172644490731244, -2.994720490937951, -3.7066555622470645, 15.720432179598184, 1.9267785250127893, -5.36456194005501, 6.127909645726589, 2.4795684470283526, 4.923292345223789, -4.232618642290241, -1.549934467326696, -3.082376133044434, -2.162794975882221, 0.4287941183104458, 1.0018589409025793, -3.4659133639154405, -6.102408785107642, 3.339238635631631, 4.170678223108837, -3.13088155254421, 4.41576290563907, -1.714390238721891, 3.257979628212496, 1.9284620070770728, -0.669698408801878, 3.6993362469323756, 1.0027067704220514, 4.2326655514640095, 1.970846692935142, 2.8227028060239014, 0.29970006932884985, 2.241392113518568, -1.089000613389075, 1.5529512230186384, 2.0223132588937958]",-5.297714285714285,-3.4170000000000003,-5.67,-3.79,0.833,CB,DIO,25.0,PEDOT:PSS,PDIN,5.93,5.65,0.93,10.3,59.0