DA_mordred_pca,HOMO_D_eV,LUMO_D_eV,HOMO_A_eV,LUMO_A_eV,D_A_ratio_m_m,solvent,solvent_additive,annealing_temperature,hole_contact_layer,electron_contact_layer,PCE_percent,calc_PCE_percent,Voc_V,Jsc_mA_cm_pow_neg2,FF_percent
"[-96218.45766618998, 38190.55941397739, 9341.19863978244, -298.0321681723599, 3837.039845288656, -633.0815150821412, -1318.980794355729, 952.285808193773, 528.6042339012306, -265.75996339509254, 85.60403763240663, 327.51410203292335, 339.9238825739942, -217.3938336123946, 80.63195135367053, -89.32083633853233, 32.19492584684396, -21.519530699055707, -3.6266113552724115, -73.04368468656011, 86.79421267883791, 28.9157151412623, 61.36551771993493, -20.29937758864763, -20.5145225649866, 1.7418865694839667, -22.377181673057002, 12.371971410300219, 34.95291732805864, 10.187903617561325, 15.16604348820858, 8.612060636243209, -1.1743635221400766, 7.0376682218726625, -4.093627003889395, 9.922048209550361, -15.554840299560915, -5.613674452998811, -0.2972665085945745, 4.368352481075529, -3.6043195792310403, 1.354200703685919, 2.8516893216669104, -4.255469010620061, 8.299974464104451, 1.2791418187815111, 1.2654639155740988, -2.171801897186288, 0.7563528622149089, 1.6309678283868045, 0.8461705305940708, 3.200150728577338, 4.514637663770485, 2.047832060332592, 0.988495732690156, 3.0209744065138135, -1.0787642655477623, -0.5848165573459294, 0.7450505682325215, 0.7138952097940852, -0.4513392507860554, 0.44000043161623736, 0.9076636698868725, -0.7553614212014921, -1.1367214236829248, 1.4883333004282742, -0.6534390261587824, -0.2020478861539523, 0.5979438493412772, 0.35044047212350127, 0.5920200016964907, -0.4545510567545348, 1.2436977886366634, 0.06188974879205844, 0.28770923066137755, 0.34025436763747585, 0.054350949740208376, 0.15963437295462057, -0.5109982693033068, 0.3735134387368202, 0.6870145153430531, 0.38216412404326583, -0.20553217795980494, -0.08297866327442271, -0.09481622405384194, -0.0074888306561717854, 0.442508262678758, 0.06098427500299941, -0.4139541096843904, 0.14832844029545988, -0.294554145147611, 0.015892796356977712, 0.1548609075275289, -0.005654655004061704, 0.07842930267586645, -0.20841896255037717, 0.07855635365402769, 0.01820150849557578, 0.012441639298426566, -0.05940224021880214, 0.12084591158474112, 0.026787833651969892, 0.019668535058581682, 0.05537380493890609, -0.03933624965050253, 0.009307974571203914, -0.023474896973407267, 0.020049719383548492, 0.003215210697313786, -0.04194589694978035, 0.04089452902605473, 0.02749361263995076, -0.07262298298187164, 0.015379054954234306, 0.0506532373375812, 0.01506994111025417, -0.02377975685210143, 0.009711782809699865, -0.04845640783987859, 0.03322037544939782, -0.008444174408285043, -0.002255075440015908, 0.022455666638478533, -0.005795103590370054, 0.02421124183525336, 0.01760123567103644, -0.016655303062377946, 0.018813816162650987, -24184.728299811446, 96967.10334186212, 53996.57951965113, -5860.200377862855, -7002.284085932773, -2648.6889091524317, 5610.359761591015, 1951.126275269857, 1532.1407390762454, -2381.221938926782, 1659.8525079672056, -464.4597290763153, 1086.6654724266411, 1857.2333862279859, 382.93723884096903, -732.72561095434, -962.540660192224, -1154.0286339161366, 482.06116374105954, 607.1019900621816, 805.0267705801209, -49.134811259870276, -167.70191406259576, 446.42298123574267, -1131.6081331681573, -47.27776786733597, 378.6723061091838, 76.60117923838031, 228.28017885278723, -203.32890796158136, -41.99606668600588, -95.36720381109285, 158.37907412770107, 394.1044054304957, 6.549342413029123, -333.5943625919571, -57.095540825125596, 46.4231926590667, -107.60943950366776, -200.0068261946833, -23.943814726517907, 113.2896446711955, 1.1011413118880427, -79.76731799184049, 91.40551476305636, -107.0809370291019, 36.895620629021835, 68.64225396414227, 5.844439153304059, -29.28426418014546, -30.64772032183411, -58.21298353910832, 83.9948018437997, -8.530484529719544, 49.3768850689293, 6.58513105434794, 25.665363563536996, -38.22151698294094, -35.21320643625663, 44.001133249188655, -2.6573641630212137, 14.920941028719637, 50.64037186132279, -24.659541427197983, 23.818413684268144, 19.09666471814449, -10.24055577154445, -20.10701414828579, 14.141186777267977, 5.08323314703525, -20.936348543871844, -15.57681988379381, 23.46954042815387, -15.296175703606085, 4.649134847796324, -7.22803589207669, 11.469310233246313, -1.664720536917656, 3.4041140715938205, -6.085623708948404, 5.9994255032567985, 6.643707774995903, -0.2974717970627411, -20.835392381220387, 10.439960173671206, -15.943367253727521, 7.111708078026174, 8.26384359746217, -0.6233745262435608, -5.053535061869191, 12.683150019167293, -15.555602475919933, 12.682836041984768, 6.669868305968862, -3.338914579732119, 3.383313014295548, -1.0738492965906978, 3.728132027826695, -4.5345936837258325, 3.6298011767938334, 7.691084530605401, -0.949614887933901, 1.5724578787924433, -5.227148522827445, -0.7634760552757776, -7.533504030375402, 1.5523733276941725, 1.7151151276256722, 5.6155748394633935, -2.607404153070915, -3.785979569064361, 2.7380069383266417, -3.0514074866255, -0.8277933164504985, 0.16322624051110912, -3.4551536426642873, -0.4648086726688554, -4.877185662843491, -1.4982505183286605, -0.10790920078685029, -0.03579163442074407, 1.0861954484306153, 0.3610861398058618, -3.6750114109695673, -1.4236930746051448, -0.7391648484825115, 1.7883402395248709, 2.2485178856052848]",-5.297714285714285,-3.4170000000000003,-5.42,-3.73,1.25,CB,_,25.0,PEDOT:PSS,PDINO,10.0,9.8,0.94,15.8,66.0
"[-96218.45766618998, 38190.55941397739, 9341.19863978244, -298.0321681723599, 3837.039845288656, -633.0815150821412, -1318.980794355729, 952.285808193773, 528.6042339012306, -265.75996339509254, 85.60403763240663, 327.51410203292335, 339.9238825739942, -217.3938336123946, 80.63195135367053, -89.32083633853233, 32.19492584684396, -21.519530699055707, -3.6266113552724115, -73.04368468656011, 86.79421267883791, 28.9157151412623, 61.36551771993493, -20.29937758864763, -20.5145225649866, 1.7418865694839667, -22.377181673057002, 12.371971410300219, 34.95291732805864, 10.187903617561325, 15.16604348820858, 8.612060636243209, -1.1743635221400766, 7.0376682218726625, -4.093627003889395, 9.922048209550361, -15.554840299560915, -5.613674452998811, -0.2972665085945745, 4.368352481075529, -3.6043195792310403, 1.354200703685919, 2.8516893216669104, -4.255469010620061, 8.299974464104451, 1.2791418187815111, 1.2654639155740988, -2.171801897186288, 0.7563528622149089, 1.6309678283868045, 0.8461705305940708, 3.200150728577338, 4.514637663770485, 2.047832060332592, 0.988495732690156, 3.0209744065138135, -1.0787642655477623, -0.5848165573459294, 0.7450505682325215, 0.7138952097940852, -0.4513392507860554, 0.44000043161623736, 0.9076636698868725, -0.7553614212014921, -1.1367214236829248, 1.4883333004282742, -0.6534390261587824, -0.2020478861539523, 0.5979438493412772, 0.35044047212350127, 0.5920200016964907, -0.4545510567545348, 1.2436977886366634, 0.06188974879205844, 0.28770923066137755, 0.34025436763747585, 0.054350949740208376, 0.15963437295462057, -0.5109982693033068, 0.3735134387368202, 0.6870145153430531, 0.38216412404326583, -0.20553217795980494, -0.08297866327442271, -0.09481622405384194, -0.0074888306561717854, 0.442508262678758, 0.06098427500299941, -0.4139541096843904, 0.14832844029545988, -0.294554145147611, 0.015892796356977712, 0.1548609075275289, -0.005654655004061704, 0.07842930267586645, -0.20841896255037717, 0.07855635365402769, 0.01820150849557578, 0.012441639298426566, -0.05940224021880214, 0.12084591158474112, 0.026787833651969892, 0.019668535058581682, 0.05537380493890609, -0.03933624965050253, 0.009307974571203914, -0.023474896973407267, 0.020049719383548492, 0.003215210697313786, -0.04194589694978035, 0.04089452902605473, 0.02749361263995076, -0.07262298298187164, 0.015379054954234306, 0.0506532373375812, 0.01506994111025417, -0.02377975685210143, 0.009711782809699865, -0.04845640783987859, 0.03322037544939782, -0.008444174408285043, -0.002255075440015908, 0.022455666638478533, -0.005795103590370054, 0.02421124183525336, 0.01760123567103644, -0.016655303062377946, 0.018813816162650987, -31108.856697411527, 63577.75009820651, 59828.79756097166, -2015.3896827690405, -7566.980856413691, -2574.1633753833644, 8148.886453150569, 1586.72526238105, -47.92660741707738, -592.5327200478031, 372.386389289021, -197.55391742246437, 437.7503783418904, 570.4910698962739, -1180.517580035966, -210.78996480928882, -757.4522434338912, -728.9190087138277, 456.9808303874285, 242.4014226328586, 630.0377983517428, -139.6171989194085, -215.54637688628287, 500.43234909406783, -470.07907762051366, -33.035938597806776, 417.3810286754744, -173.72924182919832, 137.14238881188447, 17.195561820727324, -127.79247606389083, 206.12577548719764, 80.89154403257811, 331.72999800444467, 108.97051799402992, -111.10958553082317, 4.908184619738321, -129.5227553643205, 17.20894667968556, -272.6641094811616, 38.79085719196948, -74.31854537568101, 53.96500124530615, 47.892331881933934, 25.04090585144423, 11.13667413812075, 29.508392369208998, 2.249646374708007, 2.364160646397778, -6.728397711773731, -60.52268693507225, 16.873640529299095, 22.385281752887153, -24.781588790433858, 55.45870710708329, 10.198408992259449, 40.460686750361305, -11.99124118662722, -18.158147060715578, 17.583385587840418, 31.69737616170388, 19.44257297592206, 9.002499995478892, -7.161558864547125, 17.91392877895632, 2.008871913818152, -10.578584198891782, -8.172628250840528, 4.022597134193308, 11.412249555559233, -11.126944920521654, -20.688742818100003, 4.816470496158745, 1.2408541395237407, 8.011850399344599, 9.655691913650589, 2.0869020042899584, -6.845136895713136, 0.4541540423618393, 8.401985847076253, 5.42906179875344, -0.02869076073894483, 11.450393019802414, 14.68017512331278, 6.160208617416177, -7.913309704627069, -4.079331644982534, 12.09657637382388, -0.07391275026389099, -2.468485311454601, -0.4080412751996976, 3.116092785465905, -0.3141336882632322, 1.6078262991572334, 0.6786086496411325, 1.937214436295883, 0.7278453857839304, -0.6212923710406706, -1.3926009754115776, 3.6354521282585655, -1.5538862566603502, -2.669727334124369, -1.208360813859155, -2.1854758737349353, -2.807806107724179, -0.9148626441510057, 0.5958932634866267, 1.8629751567123183, -2.652220028138892, -2.172288328819106, -2.5158205956635964, -1.441007850241169, -3.6538169591906673, -0.5205846716901341, 4.104073734584019, -0.9167222990926547, 2.384262462842589, -0.40664265739547645, 0.20425115632700708, -1.0911089764630368, -0.09266666128803003, -0.4466294463899897, 2.4667497591755243, -1.1771102617671971, 1.073989161271049, -0.8091772555593171, 1.2495850885001443, -1.4811809865943237]",-5.297714285714285,-3.4170000000000003,-5.43,-3.71,1.25,CB,_,25.0,PEDOT:PSS,PDINO,11.2,10.99,0.93,16.3,72.5
"[-105631.73783275932, -74572.73247403272, 4329.753734020427, -2341.4243576849567, -5555.485216633641, -172.87819728700106, -798.6979620852667, 856.8010146047068, -1780.8026309386028, 649.5717848685752, 65.62447326392157, 388.30062073400836, -353.1258883999071, -137.697950651705, 31.52142203119479, -106.39355730444561, 81.98057692092414, -63.14138686604906, 66.8688432765725, -31.850017336689234, -14.562814664564094, -114.9941249091529, 19.27422754978045, 6.86920436049806, -13.362968611123335, -88.88424698589336, -9.680549433746734, -6.256532059762719, -19.287322586292646, 30.85187752382363, -0.060728621664203786, -1.7204165771485123, 18.096287928493183, -5.394264557244732, 40.036620565000476, -33.18107886987201, 2.1644049971745574, -3.5496157331860445, 9.702406188567533, -7.574832588501394, 9.796433451870143, 2.157829321761511, -3.1218789726135014, 6.6756247366353705, -7.1588684345745435, -6.697268175137552, -1.4052090508045652, -1.9646060063565116, -5.4204105421624575, 3.32941670679557, -3.8499636318233144, -4.615352531498566, -0.07975953344401887, 3.391194367932755, -4.106358123047258, 1.501503218822819, 0.9563824343184066, -2.6973013366915453, 0.8798263076499495, -1.2664639901547048, 1.2677471291641744, 0.13775840341868673, -2.0083004655011223, 2.233635675897844, -1.9092080674585787, 1.3281780039048954, 1.7708225501106938, 0.11723884380987926, -0.7217945654510771, 0.020674104910288094, 0.6321921645490995, -0.12750860712933587, -0.7324806057772388, 0.387690081710673, 0.5704773577055064, -0.5561048571084157, 0.13303415142318897, -0.39533728660630274, -0.19314666767595423, -0.17136554860633169, -0.3105600644218782, 0.09227497024608411, 0.3640581811437116, 0.12456153887661969, -0.4900314009409783, -0.2105542507325282, -0.11287961723428896, -0.4896110545300445, -0.2576249538547408, 0.020036158749878297, 0.19004174677945684, 0.43512588848888356, -0.15984926722186188, -0.03699898168409543, -0.16184812575650298, -0.018640178199959223, -0.06970965394751483, 0.02644608400954951, 0.4184249457529603, 0.06710147780425979, -0.1455202420919477, -0.027435290436191195, 0.055771972451445606, -0.09475802435058256, 0.24207868559446766, -0.05282116924259128, -0.1882724966860181, -0.05346045629421603, -0.10831494984240475, -0.0036262226167114164, -0.026380022030597416, 0.020118181288705017, 0.03512820925391846, 0.029024371883522804, -0.050134402663047695, 0.01941571781524054, 0.00820689833365762, 0.059280726425585684, -0.07718365209846922, -0.05673269250273272, 0.03097365628437565, 0.0007247489018915587, 0.008388415516517256, 0.019782146741892603, 0.003491413958400358, 0.005668303566913835, 0.008251200563019978, 0.015433351818131769, -55659.40694888075, 18964.57535821899, 48478.439643765305, 19544.854539208078, 1936.2813446406453, 13937.187843309817, 1935.0713196746856, -6113.782497401514, 4020.432653463828, 4074.188719401237, -356.1346153191748, -5328.369464099271, -978.3356463676007, -1794.1500452600385, 1258.7617191788995, 1094.1611746744702, 404.36626634438363, -367.0051556876151, -718.6992579620312, -1201.1866192649438, -158.67463738703054, 598.56414629748, -263.330823229806, 13.482917083606594, 393.0972193073718, -354.3050272822469, -196.1644397035626, 251.54900812655285, 379.6233364699096, 3.456571567148444, -58.10315300665017, -92.43993590145749, 2.182061101145308, -62.49336605794815, 77.13777801761854, 59.21907231877216, 44.849130426149145, 122.25072515714538, 164.25894175154727, 73.32707373166645, 183.16088071763107, -10.999784656300221, -38.43615535423447, -67.87716567158215, 79.73098021678524, 72.97021823193566, 96.98689332257227, -143.14595935442685, -72.10042136538328, -37.31269470950735, 71.04961803876856, 13.176161559805223, 34.748603045143426, -27.495134732944152, 66.33753350677745, -61.8219500594638, 9.965945503703495, -17.497227319351182, -33.27125435899612, -12.96440495604216, -6.730028311072161, -8.010309395448058, 12.096517554631902, 21.290959196644955, -17.55147096440561, 0.19119890331773037, 3.29435662785541, 17.462146423906102, -20.618328187808054, -6.1397255374912305, 6.475613083929652, -10.34794224319475, 12.768242750395657, -8.005444305011988, -1.3262978942157684, -14.946573829573609, -16.98043033642706, -14.536502617639467, 6.671336721363133, 5.660981181864443, 3.0296290175803726, -3.7293229145556523, -11.602276085487752, 2.1097453374383406, 6.787630253740872, -0.9064505383805184, 7.07829676018439, 1.2767738185223436, 7.841906708584343, 0.8576381308261372, 11.171437070735216, 0.5868446522155892, 13.450982318405138, 4.284573251904149, 1.4150607630157168, 2.4727314517108105, -2.164087939776337, 0.9270240737369617, 4.375087520240353, 2.1298649113891344, -5.127357387142194, 3.611179007235741, 8.509665792362986, -5.30935242007881, 0.34287280369882467, -2.5948522488373804, -6.721750036265719, -1.4888366657864118, 13.654688054661287, 2.9312013580672875, 0.2820710724812283, 0.48025279670955356, -0.9181660484442631, -3.767293158258995, 4.69033634138936, 3.1683533242255884, 6.508868497503563, -6.018316971181269, 6.27176569690727, 8.415727368752762, 3.6757586627375547, -0.5405072557952391, 2.4828557860224594, -0.9635535892049631, -0.8115865232098443, -0.8581838872356542, -2.618861330928965, 1.781522610768583]",-5.204782608695651,-3.5391891891891896,-5.22,-3.5,0.667,CB,CN,25.0,MoOx,ZnO,9.51,9.51,1.08,15.72,56.0