DA_mordred_pca,HOMO_D_eV,LUMO_D_eV,HOMO_A_eV,LUMO_A_eV,D_A_ratio_m_m,solvent,solvent_additive,annealing_temperature,hole_contact_layer,electron_contact_layer,PCE_percent,calc_PCE_percent,Voc_V,Jsc_mA_cm_pow_neg2,FF_percent
"[-113112.0221877825, -128040.17814553897, -10298.628999373548, 3432.733628547574, 8973.419698991387, -3439.282848851566, 3781.954798850272, -829.6176407827634, 1085.3982123472952, 550.4456547111608, -435.8864607518108, -710.2243801656157, 1326.1626490602139, 8.665554309145136, -418.74269954022566, 187.45956881819745, 121.28409340748124, -4.298184849417794, 8.490690881116162, 52.913455571291934, 87.8658439058351, 43.51987937221628, 44.34062644746041, -49.48592701393579, 33.90433203557939, 4.676946288832141, -8.072828067571379, 10.567251849407967, -111.51899092106515, 28.525996512887673, 100.06773607887192, 12.062822784303606, -5.263110840715456, 7.512175011148145, 1.3785293027879106, 16.635643035520957, 4.039764278740535, -24.845372606161163, -22.45639579757742, 5.826741130519196, -0.7521496402381729, 12.53019855668316, -4.796028348520849, -8.538919188446641, 0.6386535221417375, 0.28586521885279126, 3.6235228381428186, -2.3848029517721017, -2.8923507347754054, 4.7855121583618825, 4.964071798130007, -3.784341510985911, 2.078751210970445, -0.29178313050513793, -1.7735955457794503, -3.129511596315538, 1.0268372421283374, -6.771806284949676, -0.36009360913607225, -0.2885819863777215, 0.7901843974181446, -4.113908987537911, -1.4204402500640185, -1.319936024894119, 0.9505850971635255, 0.3919987624149357, -1.1826527991339901, 0.25278811590131767, -0.10244841765984347, -0.06963895121972996, -0.3177515931384107, -0.252237779743524, 0.3418882282524356, -0.025334246562977114, 0.6085323469659869, -0.08140436503745718, -0.052060392777136144, -0.37716527456960947, 0.622708357653387, 0.7512702289248097, -0.18664277121496298, -0.4686124080250025, 0.11033475969473727, -0.17570642990008523, -0.01191175014561452, -0.5637582343619982, -0.15994847323332984, -0.4211786166219582, -0.07485781839410688, -0.23597185487598793, -0.10873839156025156, -0.12014790117991936, 0.17783780040360142, -0.16002430739202889, -0.04013287387633824, -0.3283820317790074, -0.14723447861628003, -0.013208994816466202, 0.10783506653254449, 0.02054895260968026, 0.0038103610396120757, -0.03785315965532643, -0.013199411282162288, -0.07276953001481701, 0.05509625405750462, -0.04625759139159413, 0.04027683863420606, -0.0025516021335834083, 0.03001469427361414, 0.09321320428330893, 0.06018147875735025, -0.03890482007976459, 0.055154607055641236, 0.0315222130303745, -0.0697597739780349, -0.024930229612809995, -0.01225032381139357, 0.015968003371716222, 0.02773925890596729, 0.0066110138903283655, -0.025875302652229593, 0.0026188898131849214, -0.006174358951955394, 0.01351968740192433, -0.0167749891402309, 0.027379330332195195, -0.004039592793215974, -0.00318420795111507, 498668.1058670925, -99047.11877947806, 42619.46283819166, -55816.56637055299, -5017.012414308536, 8413.05738559738, 4568.838753255342, 7987.61283445187, -2472.4324014522454, -3316.72921322078, 3738.8569311669403, 2649.2285801013636, -272.7501807875701, 1398.5166918694126, 969.6104857221078, 588.2338568268858, -902.7716651350756, -827.6566842432007, -1379.104217775582, -202.70364455982804, -24.63896291191054, -2252.929293635159, -81.49596395590237, 118.58690260199432, 712.6494128368648, 195.89245649823516, -786.4047396800954, 1055.1050081473682, 1045.3601366343883, 494.91947347135, 1295.012605974572, -494.84586994144445, -706.1030726739855, -288.4989684292823, 145.85080592437066, -262.8685223231284, 291.2495861878753, -33.92524208177167, 252.851848443345, -117.95368048035476, -148.25732954533316, -373.3765134403112, 134.42842559213338, 143.3985088109349, -102.20776230769431, 138.06863520850845, -95.56627964123976, 154.58082183546102, -86.68879140118449, -4.855224521623015, -76.01752533343691, -11.651252437990877, -13.094979955444018, 14.808639906593157, -31.750741277024133, 5.254606879208012, 31.365573414645112, -78.30480845218793, -29.146614469164774, 29.042917193318004, -38.681174777465614, 12.631277548967088, -61.10582021609048, 49.64774939992706, -5.654639149090144, 15.486469367158012, 62.59840969178918, -6.58742442006729, -67.1725992597896, -8.379936865498614, 28.450198028359367, -9.612633794039407, 21.81645692737159, 8.302628602962557, -7.261034805227757, -35.50555831784, 18.853784274820303, -18.175279650175064, 5.729749020805386, 18.464822180614007, -34.48830665064989, -9.568036562085407, -5.9508242503463595, 3.8076015260070335, -2.362690198134885, -11.157030972405412, -26.590859383872772, -0.17826409891799244, 10.702856651739587, -8.904474681190543, 19.46116782107285, 7.554571174341753, 3.721229585275708, -18.530589891255403, -1.6447422650301746, 0.5823769295684436, -5.8875004066570185, 5.3934364376314345, 11.541349168425057, -11.418268165115677, 2.1629364154738298, -13.575104644064588, 0.08170060438721194, -4.30086822840946, -1.4444658560604857, -4.616546111008049, -6.313905586379992, -7.607564139865745, -3.4041676277586195, -1.8622387393476387, -2.2096998584924243, -1.0576044274606033, -3.0713486541674087, 0.7253428080921256, 0.11285201767162079, 0.5861385136131538, -7.904893654473611, 0.6677722056448658, 7.3610075956050345, 1.9549865756841514, -0.19000355066317454, -0.6219323498744411, 4.289221889765237, 2.004519383089571, -1.6756401079393264, -2.7025436640715874, -0.8621776984272813, 0.3784806349560448]",-5.057777777777777,-2.989444444444445,-6.09,-3.97,1.0,CB,_,25.0,PEDOT:PSS,LiF,0.75,0.79,0.89,2.55,35.0
"[-113112.0221877825, -128040.17814553897, -10298.628999373548, 3432.733628547574, 8973.419698991387, -3439.282848851566, 3781.954798850272, -829.6176407827634, 1085.3982123472952, 550.4456547111608, -435.8864607518108, -710.2243801656157, 1326.1626490602139, 8.665554309145136, -418.74269954022566, 187.45956881819745, 121.28409340748124, -4.298184849417794, 8.490690881116162, 52.913455571291934, 87.8658439058351, 43.51987937221628, 44.34062644746041, -49.48592701393579, 33.90433203557939, 4.676946288832141, -8.072828067571379, 10.567251849407967, -111.51899092106515, 28.525996512887673, 100.06773607887192, 12.062822784303606, -5.263110840715456, 7.512175011148145, 1.3785293027879106, 16.635643035520957, 4.039764278740535, -24.845372606161163, -22.45639579757742, 5.826741130519196, -0.7521496402381729, 12.53019855668316, -4.796028348520849, -8.538919188446641, 0.6386535221417375, 0.28586521885279126, 3.6235228381428186, -2.3848029517721017, -2.8923507347754054, 4.7855121583618825, 4.964071798130007, -3.784341510985911, 2.078751210970445, -0.29178313050513793, -1.7735955457794503, -3.129511596315538, 1.0268372421283374, -6.771806284949676, -0.36009360913607225, -0.2885819863777215, 0.7901843974181446, -4.113908987537911, -1.4204402500640185, -1.319936024894119, 0.9505850971635255, 0.3919987624149357, -1.1826527991339901, 0.25278811590131767, -0.10244841765984347, -0.06963895121972996, -0.3177515931384107, -0.252237779743524, 0.3418882282524356, -0.025334246562977114, 0.6085323469659869, -0.08140436503745718, -0.052060392777136144, -0.37716527456960947, 0.622708357653387, 0.7512702289248097, -0.18664277121496298, -0.4686124080250025, 0.11033475969473727, -0.17570642990008523, -0.01191175014561452, -0.5637582343619982, -0.15994847323332984, -0.4211786166219582, -0.07485781839410688, -0.23597185487598793, -0.10873839156025156, -0.12014790117991936, 0.17783780040360142, -0.16002430739202889, -0.04013287387633824, -0.3283820317790074, -0.14723447861628003, -0.013208994816466202, 0.10783506653254449, 0.02054895260968026, 0.0038103610396120757, -0.03785315965532643, -0.013199411282162288, -0.07276953001481701, 0.05509625405750462, -0.04625759139159413, 0.04027683863420606, -0.0025516021335834083, 0.03001469427361414, 0.09321320428330893, 0.06018147875735025, -0.03890482007976459, 0.055154607055641236, 0.0315222130303745, -0.0697597739780349, -0.024930229612809995, -0.01225032381139357, 0.015968003371716222, 0.02773925890596729, 0.0066110138903283655, -0.025875302652229593, 0.0026188898131849214, -0.006174358951955394, 0.01351968740192433, -0.0167749891402309, 0.027379330332195195, -0.004039592793215974, -0.00318420795111507, 940854.9597668343, -201273.99123245382, 48990.36222449371, -37646.971043278696, -5824.461985989863, 3410.4055536533633, 7577.481586744686, 4157.759051119738, -6829.714762060333, -5257.5772195459995, 4904.848292120144, 4336.139706508997, 500.4322841949527, 776.7954578274365, 2371.928423883517, 389.81293966955195, -1536.9548249850823, 1446.9886058905677, -278.740966685437, 1039.6273839090456, 344.18577980182584, -2233.0473943019283, 177.90633905058138, 243.41256748273364, 609.2413901476975, 293.9305034995758, -10.290010308071444, 830.8382451194807, 1278.6305226032466, 119.16213541106272, 1173.0114763758138, -363.90472090027885, -1341.6110498899955, 569.0180743421204, 789.6190028398751, -34.774614955089945, 316.80324590278394, 675.9269115645444, 138.91039941775895, 375.9451537048179, -351.76353363008167, -190.4465470418125, -32.118999542456066, -40.15638743254709, -32.19431390827448, 106.46235073090834, -29.422987786381743, 0.3380029152512094, -121.20919775561391, -32.33925186033623, -5.012987007395953, 18.939340986581655, -41.83022890809288, 67.48555844184261, 72.480811154133, -0.7485451337544262, 38.205099938093376, -50.56534476086173, -42.535291043752224, -15.031608238450417, 14.42939236131317, 5.2199327579248695, -37.06419756675627, 2.011169251087207, 33.282878675256626, 34.92815651932571, 24.33038383387016, 16.890671377396615, -19.507649636250115, 55.159241670158416, 3.434835614437219, 24.75961049599248, -38.53126913462785, -1.6878048674167765, 17.731061784729018, 1.853925320714417, -14.48248564987357, -14.540957266115509, -31.99967942421687, 7.147261583936256, 20.547846906873655, -4.935865891995674, 8.778294909885357, -9.191007139134705, 9.892505658301012, 10.353031267227209, 26.33742035092062, -3.1768433991151763, -10.963816773562922, -5.934267023267967, -20.133833141849145, -12.931157862904985, -1.2092922050083992, 10.70856102291215, 3.719209013555542, -21.16945088953318, -4.644177321373647, -3.8579801195268653, -3.9555155435511633, 2.3349937602485937, -5.753651999097151, 9.263217545854594, -2.626201121003472, 4.449097467535122, 10.344799963322487, -6.402274430011456, 7.066820348818734, -1.6965456665683405, 1.2101647360374077, 0.7416211253705072, 0.3099931177752868, 1.5051227906896205, -0.6878058830192053, 1.2199623882509432, 5.9132072618978455, -3.175855914017955, 5.015853877897785, -1.7084023120658038, -3.2825027976383296, 0.2695803711828031, 0.8010433952774925, -1.877298160883524, -2.9973039755254898, -5.9292329918642235, -1.2166378713869896, 4.2741291220777295, -0.19773532288579432, 0.8219403485288277]",-5.057777777777777,-2.989444444444445,-6.02,-3.92,1.0,CB,_,25.0,PEDOT:PSS,LiF,2.2,2.16,0.91,4.95,48.0
"[-113112.0221877825, -128040.17814553897, -10298.628999373548, 3432.733628547574, 8973.419698991387, -3439.282848851566, 3781.954798850272, -829.6176407827634, 1085.3982123472952, 550.4456547111608, -435.8864607518108, -710.2243801656157, 1326.1626490602139, 8.665554309145136, -418.74269954022566, 187.45956881819745, 121.28409340748124, -4.298184849417794, 8.490690881116162, 52.913455571291934, 87.8658439058351, 43.51987937221628, 44.34062644746041, -49.48592701393579, 33.90433203557939, 4.676946288832141, -8.072828067571379, 10.567251849407967, -111.51899092106515, 28.525996512887673, 100.06773607887192, 12.062822784303606, -5.263110840715456, 7.512175011148145, 1.3785293027879106, 16.635643035520957, 4.039764278740535, -24.845372606161163, -22.45639579757742, 5.826741130519196, -0.7521496402381729, 12.53019855668316, -4.796028348520849, -8.538919188446641, 0.6386535221417375, 0.28586521885279126, 3.6235228381428186, -2.3848029517721017, -2.8923507347754054, 4.7855121583618825, 4.964071798130007, -3.784341510985911, 2.078751210970445, -0.29178313050513793, -1.7735955457794503, -3.129511596315538, 1.0268372421283374, -6.771806284949676, -0.36009360913607225, -0.2885819863777215, 0.7901843974181446, -4.113908987537911, -1.4204402500640185, -1.319936024894119, 0.9505850971635255, 0.3919987624149357, -1.1826527991339901, 0.25278811590131767, -0.10244841765984347, -0.06963895121972996, -0.3177515931384107, -0.252237779743524, 0.3418882282524356, -0.025334246562977114, 0.6085323469659869, -0.08140436503745718, -0.052060392777136144, -0.37716527456960947, 0.622708357653387, 0.7512702289248097, -0.18664277121496298, -0.4686124080250025, 0.11033475969473727, -0.17570642990008523, -0.01191175014561452, -0.5637582343619982, -0.15994847323332984, -0.4211786166219582, -0.07485781839410688, -0.23597185487598793, -0.10873839156025156, -0.12014790117991936, 0.17783780040360142, -0.16002430739202889, -0.04013287387633824, -0.3283820317790074, -0.14723447861628003, -0.013208994816466202, 0.10783506653254449, 0.02054895260968026, 0.0038103610396120757, -0.03785315965532643, -0.013199411282162288, -0.07276953001481701, 0.05509625405750462, -0.04625759139159413, 0.04027683863420606, -0.0025516021335834083, 0.03001469427361414, 0.09321320428330893, 0.06018147875735025, -0.03890482007976459, 0.055154607055641236, 0.0315222130303745, -0.0697597739780349, -0.024930229612809995, -0.01225032381139357, 0.015968003371716222, 0.02773925890596729, 0.0066110138903283655, -0.025875302652229593, 0.0026188898131849214, -0.006174358951955394, 0.01351968740192433, -0.0167749891402309, 0.027379330332195195, -0.004039592793215974, -0.00318420795111507, -50102.08124251526, -106318.32329219763, 28814.66077582677, -41143.942399888554, -655.478936560784, 4602.192570676922, 2441.438971092788, 5235.55930256693, -505.9459426082949, -2187.287039575989, 2604.12908607856, 895.6706040369786, -904.7428133932341, 1956.680670941467, 489.603516199373, 250.40819375898337, 8.883492499052924, -944.7993261357368, -1200.4169912496293, 340.83795118981567, -74.00395866484007, -1495.8847266484568, 399.4271231018271, -402.8201267803887, 67.30016726454124, 69.69980854181938, -1146.9435304451326, 631.4158570474415, 587.3637935190892, 282.99467665558467, 789.997312070413, -480.5443681303783, 92.58231275043772, -465.03627042267055, -87.84119421002094, -22.268043211899677, -91.32239301003679, -115.00045308405598, -6.105824509927038, -306.8582334304178, 227.26637395253184, -136.596990334118, 113.02635089634833, 77.78147663048992, -157.4943652112506, 62.808145829400516, -57.556645794630015, -45.63375625138205, -13.436729072330962, 30.18887234469186, -24.2245882270595, -47.1799953224218, -4.016697056708551, 39.152456002797486, -8.910426501686516, -106.60834021406056, -14.907989249238625, -14.477593827745807, 13.240916348598716, 18.311012083770706, -3.556434093937554, -0.32932225786822045, -11.354576365277005, -15.371006718835655, 9.761697163468604, 8.714766714225656, 9.928005329313951, 25.08546169081007, -7.649100309617768, 16.141198891759217, -2.4197321697344094, 45.046262754515716, 8.885117111606515, -3.202138610078377, -4.500148665156361, 6.976005120830202, 1.4120910952565673, 12.636125055885609, 15.386259186959677, -5.782755147251898, 0.5240650038495773, 12.958965563069079, 6.082600521346709, 0.06109969885819311, -2.4698472442554724, -11.068110174336361, -17.83632632585011, -5.5988411666925515, 2.0480128763967733, 16.297966399950038, -2.9859208425382313, 7.024539349966183, 8.014398436082345, 16.242317765832368, -2.4246546869915875, 1.6078061122288503, 12.891238200065036, 1.194344048818179, -2.4497730019238326, -1.0407129374363961, -4.199971833732167, -7.450649071186016, -2.2668581136144415, 7.331893050844393, 7.623491749296591, 8.136544544460406, 5.856746419513463, 13.293253865058375, 7.368522383694195, -6.898742197575553, 8.100609388623694, 1.1378407884673436, -3.2370459594006036, 0.26403973985775053, -4.99099388837767, -2.3185356212109234, -3.955872014383772, 0.17210233486369297, -3.410215240930409, 0.22346041303632802, 4.260898361247836, 2.3276188340102815, 5.415262444276124, 2.337642235160029, 0.774700238934237, -1.0293453513656312, -7.903441413997889, 0.71026037985051]",-5.057777777777777,-2.989444444444445,-6.06,-3.98,1.0,CB,_,25.0,PEDOT:PSS,LiF,2.8,2.86,0.88,7.55,43.0