DA_mordred_pca,HOMO_D_eV,LUMO_D_eV,HOMO_A_eV,LUMO_A_eV,D_A_ratio_m_m,solvent,solvent_additive,annealing_temperature,hole_contact_layer,electron_contact_layer,PCE_percent,calc_PCE_percent,Voc_V,Jsc_mA_cm_pow_neg2,FF_percent
"[-105631.73783275932, -74572.73247403272, 4329.753734020427, -2341.4243576849567, -5555.485216633641, -172.87819728700106, -798.6979620852667, 856.8010146047068, -1780.8026309386028, 649.5717848685752, 65.62447326392157, 388.30062073400836, -353.1258883999071, -137.697950651705, 31.52142203119479, -106.39355730444561, 81.98057692092414, -63.14138686604906, 66.8688432765725, -31.850017336689234, -14.562814664564094, -114.9941249091529, 19.27422754978045, 6.86920436049806, -13.362968611123335, -88.88424698589336, -9.680549433746734, -6.256532059762719, -19.287322586292646, 30.85187752382363, -0.060728621664203786, -1.7204165771485123, 18.096287928493183, -5.394264557244732, 40.036620565000476, -33.18107886987201, 2.1644049971745574, -3.5496157331860445, 9.702406188567533, -7.574832588501394, 9.796433451870143, 2.157829321761511, -3.1218789726135014, 6.6756247366353705, -7.1588684345745435, -6.697268175137552, -1.4052090508045652, -1.9646060063565116, -5.4204105421624575, 3.32941670679557, -3.8499636318233144, -4.615352531498566, -0.07975953344401887, 3.391194367932755, -4.106358123047258, 1.501503218822819, 0.9563824343184066, -2.6973013366915453, 0.8798263076499495, -1.2664639901547048, 1.2677471291641744, 0.13775840341868673, -2.0083004655011223, 2.233635675897844, -1.9092080674585787, 1.3281780039048954, 1.7708225501106938, 0.11723884380987926, -0.7217945654510771, 0.020674104910288094, 0.6321921645490995, -0.12750860712933587, -0.7324806057772388, 0.387690081710673, 0.5704773577055064, -0.5561048571084157, 0.13303415142318897, -0.39533728660630274, -0.19314666767595423, -0.17136554860633169, -0.3105600644218782, 0.09227497024608411, 0.3640581811437116, 0.12456153887661969, -0.4900314009409783, -0.2105542507325282, -0.11287961723428896, -0.4896110545300445, -0.2576249538547408, 0.020036158749878297, 0.19004174677945684, 0.43512588848888356, -0.15984926722186188, -0.03699898168409543, -0.16184812575650298, -0.018640178199959223, -0.06970965394751483, 0.02644608400954951, 0.4184249457529603, 0.06710147780425979, -0.1455202420919477, -0.027435290436191195, 0.055771972451445606, -0.09475802435058256, 0.24207868559446766, -0.05282116924259128, -0.1882724966860181, -0.05346045629421603, -0.10831494984240475, -0.0036262226167114164, -0.026380022030597416, 0.020118181288705017, 0.03512820925391846, 0.029024371883522804, -0.050134402663047695, 0.01941571781524054, 0.00820689833365762, 0.059280726425585684, -0.07718365209846922, -0.05673269250273272, 0.03097365628437565, 0.0007247489018915587, 0.008388415516517256, 0.019782146741892603, 0.003491413958400358, 0.005668303566913835, 0.008251200563019978, 0.015433351818131769, -14115.69636674431, 60789.13482366062, 21306.487023663907, -8732.8607761899, -11674.730471588868, -3174.559930163521, 6448.793309468162, -905.4637850760781, -2607.9364669123747, 4133.235250786045, -1719.055947059799, -320.0081627318194, 2314.659616957026, -1786.6684015170945, 1053.5982447059591, -1037.1754793795012, 739.9344736844328, 356.75179951163227, -505.4153120949904, -139.0200334726527, 810.1171230036703, 98.55776171604498, -17.244865621402454, -489.02393010632386, 10.341433174203928, 811.4661246053998, -186.80217261376794, -505.39614527749075, 899.2038732533662, 212.094228181913, -25.790522255560063, 272.9866835387363, 325.5887011734923, 106.29583371198973, -19.77740105618228, 78.94290780056029, 78.4550343649064, 1.5246839164815924, 77.31632399389208, -154.15259457613536, 175.88677999772636, -129.24413482222025, -116.58459416885933, 18.553445711767747, 223.603267539539, -0.5998414222580131, -77.12194862523825, -170.237217551779, 27.56865385553474, 13.202926435250061, -59.8859321163436, 8.528442253627745, -113.476138529063, -31.911313262226663, -4.653739435659631, 64.09799201784595, 28.956523208639336, -29.947009298670174, 62.35002026739913, 84.13322651318113, -60.05103125155748, -3.667523534445695, 38.20082512096046, 11.834251973904554, 16.255400009474513, -12.917430026095781, 68.40598578452736, 29.352863943501916, 30.61955123890856, 59.653705690489616, 59.27294911994411, 6.872182428673877, -37.11561076465475, 17.3080031802757, 18.438684856871763, -9.43688779985363, -9.19374583538541, -11.283124402029962, 20.361611711027024, -22.016525983058987, -9.720101794229503, 10.531627680030825, 5.861104472815809, -17.196173730143585, 18.026327368723198, 5.809835243139704, 7.4709102324692775, -13.574143600931952, -3.130882464785074, 2.638224239906595, -0.5665326439397056, 5.357472919305433, 5.632413100683419, 22.70454349057432, -5.263911480148, 4.006866710881792, 4.6770614893647995, -6.993992048714949, -1.172414847640388, -0.35058001996147325, 3.6775727190938277, 2.034183839749158, 0.8241199350118915, -2.85859417998625, 7.085094250658726, 5.892667900791721, -6.5899100539389535, 4.690528510574133, -4.194142526588726, -3.217844645903254, 3.539461974858286, -0.6721630292298535, -3.240474743191431, -0.304240141260097, -6.847393443998042, 1.4708756113685162, -0.32749128406851824, 4.310845381015905, 1.1123092537998502, -3.06189793228492, 1.6162132704718806, -1.965372405784858, -0.33531198596805023, 1.2184349558279943, 5.027861328624116, -3.9654062126178093, 3.3168088178546533, 3.6151273176154657]",-5.204782608695651,-3.5391891891891896,-5.44,-4.0,1.0,o-DCB,DPE,100.0,PEDOT:PSS,Ca,1.6,1.41,0.58,4.96,49.16
"[-105631.73783275932, -74572.73247403272, 4329.753734020427, -2341.4243576849567, -5555.485216633641, -172.87819728700106, -798.6979620852667, 856.8010146047068, -1780.8026309386028, 649.5717848685752, 65.62447326392157, 388.30062073400836, -353.1258883999071, -137.697950651705, 31.52142203119479, -106.39355730444561, 81.98057692092414, -63.14138686604906, 66.8688432765725, -31.850017336689234, -14.562814664564094, -114.9941249091529, 19.27422754978045, 6.86920436049806, -13.362968611123335, -88.88424698589336, -9.680549433746734, -6.256532059762719, -19.287322586292646, 30.85187752382363, -0.060728621664203786, -1.7204165771485123, 18.096287928493183, -5.394264557244732, 40.036620565000476, -33.18107886987201, 2.1644049971745574, -3.5496157331860445, 9.702406188567533, -7.574832588501394, 9.796433451870143, 2.157829321761511, -3.1218789726135014, 6.6756247366353705, -7.1588684345745435, -6.697268175137552, -1.4052090508045652, -1.9646060063565116, -5.4204105421624575, 3.32941670679557, -3.8499636318233144, -4.615352531498566, -0.07975953344401887, 3.391194367932755, -4.106358123047258, 1.501503218822819, 0.9563824343184066, -2.6973013366915453, 0.8798263076499495, -1.2664639901547048, 1.2677471291641744, 0.13775840341868673, -2.0083004655011223, 2.233635675897844, -1.9092080674585787, 1.3281780039048954, 1.7708225501106938, 0.11723884380987926, -0.7217945654510771, 0.020674104910288094, 0.6321921645490995, -0.12750860712933587, -0.7324806057772388, 0.387690081710673, 0.5704773577055064, -0.5561048571084157, 0.13303415142318897, -0.39533728660630274, -0.19314666767595423, -0.17136554860633169, -0.3105600644218782, 0.09227497024608411, 0.3640581811437116, 0.12456153887661969, -0.4900314009409783, -0.2105542507325282, -0.11287961723428896, -0.4896110545300445, -0.2576249538547408, 0.020036158749878297, 0.19004174677945684, 0.43512588848888356, -0.15984926722186188, -0.03699898168409543, -0.16184812575650298, -0.018640178199959223, -0.06970965394751483, 0.02644608400954951, 0.4184249457529603, 0.06710147780425979, -0.1455202420919477, -0.027435290436191195, 0.055771972451445606, -0.09475802435058256, 0.24207868559446766, -0.05282116924259128, -0.1882724966860181, -0.05346045629421603, -0.10831494984240475, -0.0036262226167114164, -0.026380022030597416, 0.020118181288705017, 0.03512820925391846, 0.029024371883522804, -0.050134402663047695, 0.01941571781524054, 0.00820689833365762, 0.059280726425585684, -0.07718365209846922, -0.05673269250273272, 0.03097365628437565, 0.0007247489018915587, 0.008388415516517256, 0.019782146741892603, 0.003491413958400358, 0.005668303566913835, 0.008251200563019978, 0.015433351818131769, -22264.24162468773, 48197.13049748413, 11922.586604962402, -4746.106795691559, -4709.380015609693, -2450.677053509515, 8736.739985202497, -1950.1462840660074, -5764.0454437944145, 4610.345825949877, -511.7393559848881, -609.034133655761, 1824.3499510743172, -1214.6740340741023, 301.54612279079936, -99.143414226527, 1178.219709692696, 504.37316420857, -1132.1291119833131, -463.1576264469871, 1120.3349908927203, 194.94418557404168, -34.8803422834705, -1528.412539150801, -686.1521006509023, 231.41867872617567, -461.64906865299497, -662.9740247403868, 800.5544163366726, -35.66752419800919, -12.028588708951697, 593.6654764337981, 60.64079632217769, 1.8494256567572336, 67.27024076777815, 308.79542799412917, 170.08677357718116, -174.5136809649828, 21.12810019216281, -210.1622891876045, 9.790386735477135, -107.95020582070745, -25.175646396602787, -139.56016214390752, 162.94124860751313, 23.231020509877133, -133.41316185268414, -112.82762187310962, 6.972074014434128, -128.38544348813102, -47.79884988574284, 21.235784729779475, -147.2683637581239, -49.63741515712435, -46.075881094135525, 122.69008151239157, 83.6539296140381, -27.895137108720814, -15.788148376336736, 64.71028084683468, -13.151160419639918, -25.126767243013212, -22.606941094055948, 36.085230787154714, -18.356395968601497, -1.1922527539849035, 40.3142805495672, -20.88590164244763, 36.639900676380755, 21.833337985627423, 71.20065520968554, 0.9227747982693241, -32.42606406214519, 15.141422855571872, -0.7888810609040884, -1.6838561556267564, -23.588629381158732, 15.868341868526151, 18.60999645748273, -18.34794119507029, -0.5179533153997388, 0.11464240042520402, 1.5824829912249716, -21.211479134296347, 4.922304414143593, 19.551582673498878, -6.025801271599571, 9.686658496670235, 2.8216372356129087, 4.104870932267135, 8.627882715644997, 3.8708063778994894, -0.6547186804189415, -6.629620430977015, -15.736354131394496, -3.4772983306564997, -1.2259679881532186, -12.504091675718875, -5.911339534970984, -9.192063460438415, -6.149229997514101, 9.555137633488751, -3.590071874402615, -7.628096657066128, -1.6757316159245415, -3.0973616040292793, -12.163877199033639, -0.12817172240980268, -10.050077554669143, -6.266962263425403, -1.3430077583341347, -5.945792057105122, -3.6422977093858986, -8.398523737452368, 3.157222503703352, 2.738728378941156, -1.1898763658502887, 6.226994087875026, -7.7104767343786405, -0.3019084378333332, 1.7857514813129087, 0.14694896349357078, 1.1463600321937237, -0.5554737452553615, 1.2570508250319419, 0.1276091412379179, 0.7615834104012631, -0.3888350845577939]",-5.204782608695651,-3.5391891891891896,-5.36,-4.01,1.0,o-DCB,_,25.0,PEDOT:PSS,Ca,1.63,1.44,0.6,5.26,45.53
"[-105631.73783275932, -74572.73247403272, 4329.753734020427, -2341.4243576849567, -5555.485216633641, -172.87819728700106, -798.6979620852667, 856.8010146047068, -1780.8026309386028, 649.5717848685752, 65.62447326392157, 388.30062073400836, -353.1258883999071, -137.697950651705, 31.52142203119479, -106.39355730444561, 81.98057692092414, -63.14138686604906, 66.8688432765725, -31.850017336689234, -14.562814664564094, -114.9941249091529, 19.27422754978045, 6.86920436049806, -13.362968611123335, -88.88424698589336, -9.680549433746734, -6.256532059762719, -19.287322586292646, 30.85187752382363, -0.060728621664203786, -1.7204165771485123, 18.096287928493183, -5.394264557244732, 40.036620565000476, -33.18107886987201, 2.1644049971745574, -3.5496157331860445, 9.702406188567533, -7.574832588501394, 9.796433451870143, 2.157829321761511, -3.1218789726135014, 6.6756247366353705, -7.1588684345745435, -6.697268175137552, -1.4052090508045652, -1.9646060063565116, -5.4204105421624575, 3.32941670679557, -3.8499636318233144, -4.615352531498566, -0.07975953344401887, 3.391194367932755, -4.106358123047258, 1.501503218822819, 0.9563824343184066, -2.6973013366915453, 0.8798263076499495, -1.2664639901547048, 1.2677471291641744, 0.13775840341868673, -2.0083004655011223, 2.233635675897844, -1.9092080674585787, 1.3281780039048954, 1.7708225501106938, 0.11723884380987926, -0.7217945654510771, 0.020674104910288094, 0.6321921645490995, -0.12750860712933587, -0.7324806057772388, 0.387690081710673, 0.5704773577055064, -0.5561048571084157, 0.13303415142318897, -0.39533728660630274, -0.19314666767595423, -0.17136554860633169, -0.3105600644218782, 0.09227497024608411, 0.3640581811437116, 0.12456153887661969, -0.4900314009409783, -0.2105542507325282, -0.11287961723428896, -0.4896110545300445, -0.2576249538547408, 0.020036158749878297, 0.19004174677945684, 0.43512588848888356, -0.15984926722186188, -0.03699898168409543, -0.16184812575650298, -0.018640178199959223, -0.06970965394751483, 0.02644608400954951, 0.4184249457529603, 0.06710147780425979, -0.1455202420919477, -0.027435290436191195, 0.055771972451445606, -0.09475802435058256, 0.24207868559446766, -0.05282116924259128, -0.1882724966860181, -0.05346045629421603, -0.10831494984240475, -0.0036262226167114164, -0.026380022030597416, 0.020118181288705017, 0.03512820925391846, 0.029024371883522804, -0.050134402663047695, 0.01941571781524054, 0.00820689833365762, 0.059280726425585684, -0.07718365209846922, -0.05673269250273272, 0.03097365628437565, 0.0007247489018915587, 0.008388415516517256, 0.019782146741892603, 0.003491413958400358, 0.005668303566913835, 0.008251200563019978, 0.015433351818131769, -60774.797333153765, -51488.8789914905, 17140.37282573663, 3594.4115244875447, 8600.332091911481, 9102.7432851377, 1899.7273550115497, -646.8760763191376, -6715.916591551456, 3221.9132781142657, 2368.42016054399, -1775.2143978698234, 2077.8644198830166, 862.9440291023864, 219.2515951903713, -378.3500894867004, 598.9400704172336, 2339.4666814795482, 809.8013050330114, 573.4771234791883, -1108.930309737809, 1548.1214157038607, -714.0451042638349, -199.97036946426238, -232.48486744183901, -219.29801705182211, 790.6368420756128, -437.38868045634564, 146.28685357683196, -21.724807074591666, 432.773338596199, -183.28861326195977, 398.3676619529999, 237.8160523459229, -128.79831500432658, -140.54083409538185, 428.95342696149964, -198.3640041620114, -559.2272252699402, 32.69426810363791, -182.3215931946031, 130.90671557115567, -112.27016050856514, -114.54695625886798, -69.85987505567462, 114.73424161045986, -10.326985845731699, -73.71927480577028, -100.06414190596485, 115.72882184280283, -54.99099206415825, -149.19481995421773, 7.716048737200026, 53.915237850799855, -46.585330633037074, 15.767561648574556, -82.24873258441053, -83.45705975550996, 78.54516984086007, -22.621496709745287, 71.54305890171119, 47.75499717787717, -31.6102627236384, -8.481085238505393, 7.908499292841412, 20.832470648575626, -14.578039842067248, 54.781430080927336, 0.35237361890933094, 59.37582505737944, -11.83331593652693, -28.554149466978757, 9.03380235512428, -21.233742144097477, 38.991773736803616, 6.345780188493109, 25.22167412714456, 6.635589420188744, -9.0833525133242, 6.877422367271336, -2.939337616350925, -19.84840367674014, -15.05011290159332, -14.320007736179264, -11.14000095299749, 4.252595173846341, -16.235168396004603, 2.7634711411634285, -10.400594185153608, -0.4328154009575549, 9.385452327781657, -15.158073367621299, -9.740189251857203, 17.86668505732225, 1.0875269528723521, -19.532645066826237, 4.6688512521873875, 1.4327935598958081, 11.069678709576941, -13.060023571174781, -9.36198453326254, -4.560722043422839, -7.8475242174507995, 10.802796441778728, -11.766760870736412, -17.441562558883653, 12.005336185283992, 13.542998484985475, 1.2442623861500657, 2.2208871997898854, 7.7362980522030504, -3.1731785018898115, 1.5641222776169315, 2.7759476790733917, -4.434328178768547, 4.008124867731894, -2.2987426456753113, 1.735430193939262, -0.48694021381814423, -3.65051168713822, -3.4738067069536136, 4.605385854031579, -1.2780491791561346, 4.995140346483039, 8.136826266577668, -3.138143045266011, -0.7926448739915273, -2.566592472361446]",-5.204782608695651,-3.5391891891891896,-5.28,-4.11,0.667,CF,CN,25.0,MoOx,ZnO,8.6,8.62,0.65,21.6,61.4