DA_mordred_pca,HOMO_D_eV,LUMO_D_eV,HOMO_A_eV,LUMO_A_eV,D_A_ratio_m_m,solvent,solvent_additive,annealing_temperature,hole_contact_layer,electron_contact_layer,PCE_percent,calc_PCE_percent,Voc_V,Jsc_mA_cm_pow_neg2,FF_percent
"[-104962.7663977064, -80994.69477143629, 198.02697460794434, -3350.493168720447, -3047.419232833515, -2038.260791053891, -2262.1054222253033, 2230.780940619858, -225.25559773802843, -1042.64624858164, 224.0689074375423, -959.6939439988263, 175.48031114982254, -195.33645878780453, -500.6779488650926, -331.4233845357082, 4.625573062107605, -459.4043751051129, 401.5767690150666, 558.7024219874041, -788.8502566742062, 524.7984664034489, 23.631097807601122, 381.3487534321726, -18.506733095352047, 135.9782523139894, -356.87504690706896, 45.644341024777304, 193.08911058014502, -150.90674973839242, -191.8430266714472, 34.32298515233564, -79.11863644935588, -107.24486410279198, -330.29393596006577, -64.31135697839011, 69.2797674040775, 196.41127644037033, 31.892733764730252, -22.686158759033148, -144.97292990624274, -64.61420729840617, -33.562155253846015, 45.53262897563212, -6.1405458568671065, 5.0767992461629206, -9.863157068478642, -18.117152238407783, 19.56207692508572, -19.234086159352017, 40.218300580329654, 28.831848085144856, -36.8219022190868, -7.53169378920461, 22.849886145314947, -10.979831708733364, -12.562046245055893, -3.4530911396480235, -42.67479278464194, -8.310099021302676, 21.738110102859878, -24.880956652528567, 4.0665733953828465, 16.44702116844084, -8.3299050532464, -9.69125658352096, -15.241143963820306, -4.10550185245679, 3.510594734622856, 3.2072406631825707, 9.737442684773349, 3.913912038026801, 9.511310441551753, 2.6750294751153803, -0.14653350039591118, 0.514686875171904, 5.867212070395411, 1.4341450194165581, 8.93346234937869, -2.8383766935872075, 2.008131139686128, -2.099235117388776, 6.459929123469713, 2.587877513202912, 3.2064644052568667, -0.8845439748090484, -0.11101443023289459, -1.7454360657063575, 1.2347659683540293, -0.737653151831708, -3.5739212807789613, -1.8300457671489454, -0.9848976996066057, -1.4119852181342534, -0.41978445868191017, -3.1306163340944195, -0.6926424295134219, 3.1247331969001095, 0.8963319607549565, 0.3619557144610548, -1.9255737871490837, -1.4357615230020588, -1.085611323741876, 0.5629678529845918, -2.0409099144822633, -0.5379332148731422, 0.13446037910258468, -0.42635308253467663, 0.16155476691467285, -0.34022681627464735, 0.25979518569048565, -0.4439933168161705, -0.3634613525332222, -0.3136182081940717, -0.23569698790332438, -0.016376823629475012, -0.41886613329012334, 0.252121378020739, 0.006651755235882462, -0.20628209772564254, 0.2807594671246392, 0.0037581344550687845, 0.13402377830586154, 0.11634493723326145, -0.09080879199103009, -0.07781566607297918, 0.2779371665800312, -0.20734135903973083, -32524.562801557517, 6401.7723712964735, -28073.925924841067, 8987.913311174261, 19737.34125137514, 14508.543410061424, 17710.98200787608, -14389.919939453586, 17188.83637035277, 423.0535404487623, -655.5004255965966, 19878.276013895138, 10448.525738132243, -3057.7164346535333, -504.1869546710806, 172.38519475324287, 4543.174483486797, 1420.8136622719053, -3244.424044994833, -845.7145642763733, -1407.7287218257347, 409.8390355057582, -72.99587798863294, -68.73760651749174, -1032.7183698799495, -1399.9678124049656, -182.24539306326676, 350.006353632064, 13.571920896857733, 300.0436382150055, 279.4012284899748, -22.820743687637133, 54.90511556615909, 273.3976577856944, 795.1172511804097, 259.318857194973, -233.83211017509046, 53.31832999356713, -543.3055006002572, -248.06092091097983, 111.64629112960222, -16.512314992568406, 37.77389795567875, 80.87994609049463, -172.12719031577623, -220.143488451596, 174.36815594094958, 210.6124774998128, -43.5127424984207, 297.98362543724994, 114.47420980420652, -6.75595169421058, -12.260935232527945, -4.2032007525273105, -1.0268432834588026, 7.77135514196903, 26.179943491572054, -27.653753332744458, 41.63063988831095, 19.610392981800903, -18.912841601456247, -4.337773086600373, 1.1393806526906705, 34.362366911569524, -1.4885022443006566, -6.107404404197924, -8.949507970396455, 21.471006505509237, -13.985717018795457, 3.6278898507896846, 26.24622606343989, 1.2665193472347784, 22.291079191911237, 2.339992299568249, 8.64972470741888, 6.368190995007087, -49.34028127614876, -11.286809308540066, -0.8464538171316494, -17.389089037887718, 21.52684948912868, -2.3472540193489353, 6.097123107475171, -3.7782292949701954, -2.6922476575721346, -20.483069672770263, 6.461863253932155, 17.78487915892791, 0.38484307296294684, -16.013873581541, 0.8708165859144472, -1.5291318739617026, -5.620688221831928, -1.142586501735936, -8.67977219327521, 7.132087506239442, 1.5892890471579006, -3.9470878349318905, 4.157122191745213, -2.4650650352516266, 3.740381927550052, -7.578393790170857, 0.8135738887742985, -1.4348957855464035, 1.4249068837519756, -1.245916384636061, 4.08968641378045, -1.3698359636778457, -1.4131077766493867, 5.2148659553640915, 4.515545091099019, -2.480708730518248, -1.5048714338413127, 0.8019729386822982, 2.9870969484109064, -1.7837934930456285, -0.5696466386023538, 1.6344991182759205, 0.9981699151914887, 1.54006541500633, 1.5059777443336242, 0.17229786565621819, 0.1714668377119546, 0.2134031729993362, -0.5128695014586772, -0.8906265150703074, 0.16411384296257125, -0.05555238485782968]",-5.6,-3.75,-5.68,-4.14,1.0,CF:n-hexane (9:1),_,150.0,PEDOT:PSS,MoOx,8.9,8.77,0.93,14.5,65.0
"[-96218.45766618998, 38190.55941397739, 9341.19863978244, -298.0321681723599, 3837.039845288656, -633.0815150821412, -1318.980794355729, 952.285808193773, 528.6042339012306, -265.75996339509254, 85.60403763240663, 327.51410203292335, 339.9238825739942, -217.3938336123946, 80.63195135367053, -89.32083633853233, 32.19492584684396, -21.519530699055707, -3.6266113552724115, -73.04368468656011, 86.79421267883791, 28.9157151412623, 61.36551771993493, -20.29937758864763, -20.5145225649866, 1.7418865694839667, -22.377181673057002, 12.371971410300219, 34.95291732805864, 10.187903617561325, 15.16604348820858, 8.612060636243209, -1.1743635221400766, 7.0376682218726625, -4.093627003889395, 9.922048209550361, -15.554840299560915, -5.613674452998811, -0.2972665085945745, 4.368352481075529, -3.6043195792310403, 1.354200703685919, 2.8516893216669104, -4.255469010620061, 8.299974464104451, 1.2791418187815111, 1.2654639155740988, -2.171801897186288, 0.7563528622149089, 1.6309678283868045, 0.8461705305940708, 3.200150728577338, 4.514637663770485, 2.047832060332592, 0.988495732690156, 3.0209744065138135, -1.0787642655477623, -0.5848165573459294, 0.7450505682325215, 0.7138952097940852, -0.4513392507860554, 0.44000043161623736, 0.9076636698868725, -0.7553614212014921, -1.1367214236829248, 1.4883333004282742, -0.6534390261587824, -0.2020478861539523, 0.5979438493412772, 0.35044047212350127, 0.5920200016964907, -0.4545510567545348, 1.2436977886366634, 0.06188974879205844, 0.28770923066137755, 0.34025436763747585, 0.054350949740208376, 0.15963437295462057, -0.5109982693033068, 0.3735134387368202, 0.6870145153430531, 0.38216412404326583, -0.20553217795980494, -0.08297866327442271, -0.09481622405384194, -0.0074888306561717854, 0.442508262678758, 0.06098427500299941, -0.4139541096843904, 0.14832844029545988, -0.294554145147611, 0.015892796356977712, 0.1548609075275289, -0.005654655004061704, 0.07842930267586645, -0.20841896255037717, 0.07855635365402769, 0.01820150849557578, 0.012441639298426566, -0.05940224021880214, 0.12084591158474112, 0.026787833651969892, 0.019668535058581682, 0.05537380493890609, -0.03933624965050253, 0.009307974571203914, -0.023474896973407267, 0.020049719383548492, 0.003215210697313786, -0.04194589694978035, 0.04089452902605473, 0.02749361263995076, -0.07262298298187164, 0.015379054954234306, 0.0506532373375812, 0.01506994111025417, -0.02377975685210143, 0.009711782809699865, -0.04845640783987859, 0.03322037544939782, -0.008444174408285043, -0.002255075440015908, 0.022455666638478533, -0.005795103590370054, 0.02421124183525336, 0.01760123567103644, -0.016655303062377946, 0.018813816162650987, -39412.885784469465, -17317.731873982575, -13183.396377644192, -5475.171922755383, -7640.2715885291855, 2841.170516316997, 1820.0896820565792, 2886.5759005446357, 1237.541456338221, -269.43829092706494, 215.5525441580681, -313.0722415142416, -727.4290486619875, 497.90981470333134, -94.22864668508431, 714.7302585968692, 571.7568396483874, -76.63087770829736, -312.04462611140326, -303.61170219483665, -406.87623523972826, 175.01866296642802, 392.63767915112635, 498.87763652437104, 128.44626876984088, -271.50004137349015, -30.134156175578426, -72.13486345215631, 142.00091423913517, -299.68301325109763, -398.51907617944676, -231.57484957095193, 3.1852710303116822, -26.720414853163362, -95.71769145530465, 2.9925441425371435, -10.81846010370056, 102.61213778754497, 21.166149499305153, -39.367448430959904, -92.58776561061664, 97.13483078870604, -41.48313744657908, 16.095838190524706, 27.507184650689197, 23.87047217033583, 67.95895333139326, 38.187346882102446, 51.78589625439095, 20.62454550142173, 11.851244894797349, 14.762731105001752, 9.133462640877092, 3.355145414767275, -6.2788927883526355, 0.399705674697028, 18.568411092599547, -3.535893275382879, 6.3299565543368495, 0.3498754553544714, 19.594523424973346, 5.095219667788039, -23.51553499512255, 6.610654004374643, -14.689214558975582, 18.54530416814267, 7.3944354958587715, 6.6361900930769195, 15.143034887542486, 7.214030896527545, 9.068964849475272, 5.786662336060822, -5.778588980644294, 1.4271809353872138, 4.935102673202522, -7.883094698422429, 8.417674318814495, 1.2719359857346575, -0.028013882977145244, -5.431618316392148, 6.2948185185565055, 4.152899251109444, 3.588800199678839, -4.625046732623954, 1.0423751790867755, 2.2007467699495953, 3.1748114640251712, 5.94596031267289, 1.1825760483735333, -0.15435158545711536, 1.1604467260313704, 4.320506141745822, 3.349490504479892, 2.0648277907780006, 1.6804165294318096, -2.4401069681158836, -3.244792724582859, 8.313771714791063, 0.24438802637210644, -1.9313999376481608, -1.0503992231238852, -1.4158987254122504, -0.8716424589653816, -1.363253558538842, 2.170345476187105, 4.2027170028493375, 2.195862687778305, 1.5828531997042457, -1.24213534207545, -0.25983972419637524, 0.28283609082512307, -1.3444951406704613, 1.848699008552547, 0.9195901839059335, -0.46947337079778784, -0.7185792188539648, 1.5482758258377807, 0.2653061463552673, 0.16848496047959127, 0.6411629227555968, 0.9464742915141915, 0.46154753397252973, 0.16142518509601889, 0.0074366085449564245, -1.1419099071095042, 0.7066500015012975, -1.003042730752231, -0.797855399201187]",-5.297714285714285,-3.4170000000000003,-5.400000000000001,-3.83,1.25,CF,_,25.0,PEDOT:PSS,PDIN,10.15,9.93,0.863,17.35,66.3
"[-96218.45766618998, 38190.55941397739, 9341.19863978244, -298.0321681723599, 3837.039845288656, -633.0815150821412, -1318.980794355729, 952.285808193773, 528.6042339012306, -265.75996339509254, 85.60403763240663, 327.51410203292335, 339.9238825739942, -217.3938336123946, 80.63195135367053, -89.32083633853233, 32.19492584684396, -21.519530699055707, -3.6266113552724115, -73.04368468656011, 86.79421267883791, 28.9157151412623, 61.36551771993493, -20.29937758864763, -20.5145225649866, 1.7418865694839667, -22.377181673057002, 12.371971410300219, 34.95291732805864, 10.187903617561325, 15.16604348820858, 8.612060636243209, -1.1743635221400766, 7.0376682218726625, -4.093627003889395, 9.922048209550361, -15.554840299560915, -5.613674452998811, -0.2972665085945745, 4.368352481075529, -3.6043195792310403, 1.354200703685919, 2.8516893216669104, -4.255469010620061, 8.299974464104451, 1.2791418187815111, 1.2654639155740988, -2.171801897186288, 0.7563528622149089, 1.6309678283868045, 0.8461705305940708, 3.200150728577338, 4.514637663770485, 2.047832060332592, 0.988495732690156, 3.0209744065138135, -1.0787642655477623, -0.5848165573459294, 0.7450505682325215, 0.7138952097940852, -0.4513392507860554, 0.44000043161623736, 0.9076636698868725, -0.7553614212014921, -1.1367214236829248, 1.4883333004282742, -0.6534390261587824, -0.2020478861539523, 0.5979438493412772, 0.35044047212350127, 0.5920200016964907, -0.4545510567545348, 1.2436977886366634, 0.06188974879205844, 0.28770923066137755, 0.34025436763747585, 0.054350949740208376, 0.15963437295462057, -0.5109982693033068, 0.3735134387368202, 0.6870145153430531, 0.38216412404326583, -0.20553217795980494, -0.08297866327442271, -0.09481622405384194, -0.0074888306561717854, 0.442508262678758, 0.06098427500299941, -0.4139541096843904, 0.14832844029545988, -0.294554145147611, 0.015892796356977712, 0.1548609075275289, -0.005654655004061704, 0.07842930267586645, -0.20841896255037717, 0.07855635365402769, 0.01820150849557578, 0.012441639298426566, -0.05940224021880214, 0.12084591158474112, 0.026787833651969892, 0.019668535058581682, 0.05537380493890609, -0.03933624965050253, 0.009307974571203914, -0.023474896973407267, 0.020049719383548492, 0.003215210697313786, -0.04194589694978035, 0.04089452902605473, 0.02749361263995076, -0.07262298298187164, 0.015379054954234306, 0.0506532373375812, 0.01506994111025417, -0.02377975685210143, 0.009711782809699865, -0.04845640783987859, 0.03322037544939782, -0.008444174408285043, -0.002255075440015908, 0.022455666638478533, -0.005795103590370054, 0.02421124183525336, 0.01760123567103644, -0.016655303062377946, 0.018813816162650987, -3752.8272527947156, 115964.8462486518, 6336.8342306335335, 13203.393028672375, 2011.679956580375, -6581.890209674647, -438.9148027559877, 3710.4918998532858, 553.8007141570693, -2896.775973996808, -1371.627720795132, -482.52433111326536, 1938.334623742613, -1577.0262737737823, -392.3954423002515, -539.4344645247411, 189.83423249768066, -1568.44642888607, 172.21847631707564, -1201.6849528043304, -1062.6095291326021, 459.8567959234699, -248.32734026433076, 255.58681651737737, -147.85503760193842, 44.3591145550086, 259.3207392677947, -234.68049386057217, 106.72986121127974, -119.52950056204338, 78.38599074499024, 39.02882089733305, -9.481400424426937, -505.61423360447213, -60.002648250258815, 337.14757568631956, 35.19947548340889, -21.352021466777586, 44.790945553444125, 49.051367272505814, -252.76163448843235, -43.64520641362347, -140.35182020198553, 166.70722071781825, -71.00789290870449, -83.33955507175833, -202.55862928833966, 19.099716044601337, 183.9671013640087, 10.60961768394725, 42.33598326632843, -28.078114685153423, -46.253319479632225, -60.808670910796565, 36.02356951708694, 13.39228622291705, -55.18333204759594, -60.98623460179715, 19.38600875281105, -15.809542570693935, -31.973484546341318, 0.08201128926321388, -47.74872186968726, 47.47962491536863, -15.32869040397415, 17.34161191003713, 20.462571442886315, -2.23592219910455, 22.455625496954738, -12.865327814992511, -3.1399055603159667, 3.0714484288375945, 2.7548771020603198, 10.416379738348084, 5.854774708692581, 15.169508570205664, 15.304088960509631, 14.490365744293214, -8.37591071620794, -6.42485425907482, 0.9093003581024748, -22.41050442532488, 8.240885998033832, 6.00738031906495, 7.475408752993232, -0.7124907536131246, -1.1084150707014402, 4.315396488879742, -14.034454694091668, -7.340718643849982, -15.502040604426647, -9.803611155505422, -10.982832116668419, 9.105565892141954, 4.621208753578536, 4.18211218632905, -4.90425580278599, -7.579407770071892, -5.747259777155069, 6.29516623252961, 2.881719206326263, -0.5341871463158512, 3.225736527326097, 4.230352458712149, -3.5634637574354144, -1.8705266303694987, 4.5625370588506975, 0.1527884617810571, 2.1645643241064416, -6.519405587888702, -3.289936063961445, -2.0407111867603227, -9.97257763570569, 3.1699728230928894, -2.3321190369424523, -3.1976971742582485, -4.440073649959707, 1.6903887401086966, -5.653465573132912, -1.4174124254618583, 2.2389126991791444, -0.7663645618296053, -0.7105241521729067, -2.005736123712877, -1.4195625333198478, -0.5133023309090259, -3.9274232306695893, 0.3709605877625677]",-5.297714285714285,-3.4170000000000003,-5.36,-3.89,1.25,CF,_,25.0,PEDOT:PSS,PDINO,11.62,11.57,0.835,19.73,70.2