DA_mordred_pca,HOMO_D_eV,LUMO_D_eV,HOMO_A_eV,LUMO_A_eV,D_A_ratio_m_m,solvent,solvent_additive,annealing_temperature,hole_contact_layer,electron_contact_layer,PCE_percent,calc_PCE_percent,Voc_V,Jsc_mA_cm_pow_neg2,FF_percent
"[1556641.8275210918, -36331.99053182701, -1020.240339088547, 4455.528349254522, -7266.691143233087, 929.8475699722967, -438.4550370619529, -312.7189997323849, 628.0569340365641, -691.0933404480056, -1223.4088654686702, 226.1145909102463, 726.5979522956577, 267.22528449852007, -1533.2841532664984, -538.3649462308778, 120.68893794324833, 961.5589660354783, -4.417318411684796, -574.0387547211122, 305.90368534197677, -544.0390478576774, 318.60858957897983, 34.019621301280154, -476.1655807300932, -64.58402509639677, -80.41385793461353, -351.38404902482563, 316.7241026854427, -239.49507241051037, 197.68501249026104, 437.79622329135907, 180.84122129530925, 185.27915102598044, 161.35330683029963, -133.256138982749, 92.49600836107014, 51.42997864319943, 113.52951804356013, 178.45802820964647, -145.79774648198932, 75.66830993163913, 62.532035537513366, 31.81877403217777, 56.93897832084963, 28.936479252419076, 192.65995480521644, -9.830733163178216, 12.151159967744547, 2.8584796850050793, -67.19155965713672, -79.0613827537747, -92.66931345520898, -22.76779133610775, -9.528715856764464, 61.593349884688905, 75.87963924201837, -2.212292721386646, -6.680036280373912, 47.13057108399741, 33.07882971162073, -39.43293878061962, -18.346080110871867, -51.42313672968247, 55.87092801158397, -36.04261973762013, 32.55718620117989, -25.67445971470236, 30.8810848411061, -26.82718419728187, 6.4874548776873695, 3.4418407638871003, 23.295191999023757, 6.379468376841757, -0.20373598010507976, 19.85505572578191, -7.026520074515631, 32.87952272946198, -21.997697851797334, 3.3845145568984094, 19.245517687525364, 13.83580702018838, 0.8797793100939586, 20.53013198659839, 11.139411783971596, -6.521499154865282, -6.242024342131351, -0.7119791109763298, 5.793408124824111, -2.1152481928506894, -0.5643319166626952, 7.2733921632581655, -0.4143297028386357, 3.081605534881149, 2.877822311374814, -1.11085651931581, -1.571294923612788, 4.407774704030643, 1.49149689266185, 2.028013373447325, -3.1411680593542997, 2.140876822974231, -5.45296500599189, -1.6354817835453161, -0.1251232948870067, 1.0777290011451441, -0.26285353543039136, 2.864804088724301, -4.104027286868288, 0.4871190103112468, -0.8676788457800342, -0.8574432993342924, -2.4367848001441947, -0.03915806212901174, 0.4742932973842784, -0.6190090531015446, 0.8570898975884731, -0.20571870945186177, -0.08820019950938018, -0.24985051471702402, -0.05961130413273352, -0.1753349154015531, -0.0315461503678673, -0.3401687155412958, -0.6041955042476985, 0.12442453444456447, 0.39693472851261546, -0.5574216126381728, -35133.7948384405, -8229.633002095004, -12056.006677875394, 2789.4971387186242, -6137.391894299175, 347.2184125819449, 313.56897363838834, -763.0529003245208, -753.2713027045285, -463.7277561870353, 442.3965848250751, 144.76451622384843, -82.11980750356622, -241.51593372271438, -166.11661214239564, 161.0117266220481, 156.82867720048182, 45.04865333330787, -64.48252064437057, -23.748315205729725, 175.35196382208807, 75.91403661606171, -286.96291437231935, 32.43950758749915, 86.82629792655737, 17.332913738685377, -52.109964316334626, 147.96654517479746, -66.74616426635947, -30.131339361474026, -64.6842293414586, -20.401781789495175, -60.814467118058936, -33.126806506498966, -10.042152655421425, -51.312256336249625, 3.144366245462294, -3.71627624153237, 36.40376072528973, 0.4548085410526568, 8.77647477218483, -28.125389876423775, 2.49569238193056, -12.913454340121639, 4.879924205036842, -2.3377624767900205, -6.672954601090133, 6.202739337502919, -10.893634984359561, 12.032465269856662, -12.063043989303566, -0.34303639091355365, 5.016332629152714, 0.12086901313429266, -9.726503251923347, 6.137316418082435, -7.076062334661124, 7.3653218625323404, 3.5070409455817924, 2.301233891752652, 4.71929931757742, -1.926768238609477, -5.728496834707801, 0.05692591901005528, -4.227503980921206, 0.19035190488374848, -0.8161738905036682, -0.4714746073762517, 0.016165936440852846, 1.5320458160517845, -3.625921731256579, -1.3255082942715024, 1.0395488339674301, -2.629665545987187, 0.2524077098567754, -0.25955818195747327, -0.9738252465763915, -0.4436497764515863, 0.3498051835956417, -0.5126149363315342, -1.3513245580317377, 0.2982577901396226, 2.0905817811936993, -1.423686297008441, -0.5684747340003078, 0.06286388557579237, 1.556243536792186, 0.47664310848808533, 1.3381005503037402, 1.3274012761810585, -0.18103683328045683, 0.13158711423599634, -0.35216959119522606, 0.24205021276454275, -0.19716096928100413, 0.3411096425350699, 0.8983261097286253, -0.17492589746772325, -0.26859509238574053, -0.13780411398829884, 0.2481245213135157, -0.23952231622609954, -0.5478870274515413, 0.5484971724321479, 0.500298126046161, -0.06133469645540579, -0.3248140481935957, 0.313231347131103, 0.63465776568537, 0.5975958356568718, -0.21144062004099506, -0.6749983329678217, -0.32992632468938865, 0.3033181272449559, -0.12238950451054809, 0.06097724241096092, 0.2639722379565246, -0.2236154184593273, 0.06848499166746613, -0.30866773947200965, -0.13429432396519503, -0.2605157287139417, 0.0014308004863301527, 0.11389554910299449, -0.08035043575031331, -0.3428563737769905, -0.05785525732550667, -0.006029155567380151]",-5.45,-2.91,-5.574146341463415,-3.915,0.667,CF,_,170.0,PEDOT:PSS,PDINO,8.24,8.24,0.95,13.12,66.1
"[-22010.95962089414, -7666.084223702165, -2638.0855301155784, 8294.456894848849, -8857.435853357776, 3157.592248006294, 1615.2497798360405, 190.76368755223666, 3064.2289666965185, -2610.150527009974, -1086.3746316340018, -721.9920740755915, 873.2689660966471, 662.0466058867174, 59.8344114716339, -1234.9471021301083, -171.9884063046531, 560.5783241229403, -570.4499780852506, -598.9093281270352, -430.040009580927, -55.1430158729936, -106.99982829430283, 406.3885265719127, -513.2903057048014, -244.45428004614288, 54.16762396546778, -409.92402507397867, -225.7114965803385, 281.25716732345785, -190.7266692551677, -187.34794226659977, -70.35611592085849, -355.35901924608436, -11.844647382252134, 113.63085621013411, -143.8660822290252, -4.302679283019515, -18.1235043225512, -145.79169764268715, 3.1535900258845757, -1.3081613126198377, 19.750672968906635, -59.647318873629104, 96.46894023777233, -45.53504594601155, -45.6682528594111, 15.096089392789159, 39.031908587744255, 42.92046641967161, -15.969195389686767, 16.746081879861677, 6.090308783633409, -13.158996800792504, 1.1259422526659648, -3.9650802530623306, 52.98891247950785, -1.6270083780107303, 14.028997553080636, -21.884971496428996, -32.921898937439956, -16.57921618300626, 17.330619972450265, 8.29749419840731, -5.4592505890330045, -12.508910156646309, -7.55478703497554, 10.692032717889198, 5.229107406702802, -1.984351799367806, 4.179912261713415, 14.239278885330087, 16.10032736594103, -1.2001354589688251, 26.773555901412237, 5.036900722170028, 5.286971114948251, 1.4332696864342331, -0.7431380082989165, 14.676977274735746, -11.283677515521362, 1.3345449099241273, -4.805897826777324, 7.191263228029075, -2.2913276002013063, 0.10724423011266282, 2.1501044396935933, -8.235690986784657, -3.8962083282599886, -0.8444828290050737, -2.3631926472423217, 7.360363640529725, 0.24502665871026075, 3.0001960999397816, -3.306870558198322, 6.49988413447284, 2.683316228557007, 7.952389749623682, -3.7333350719103215, -6.450235066146307, -0.0105363312872786, -1.5875313074766697, 2.8257424619951177, 0.9223973234078464, 2.7511789386941348, -8.501806286027149, -1.3181024310589913, -1.6292649409404159, -2.6069876099941727, -2.132757965756527, -0.7450174563011682, -2.444184469702124, -0.5677340217165808, 0.7453911124754118, -0.20243686005228412, -0.21200480298507807, 1.3825457003720318, -4.178314682839299, 1.968689454257671, 1.6104076707606838, 3.6770639759831223, -1.2766583793336448, -2.4402505582526928, 0.11656907397213079, -1.93878631337029, -2.2404035312927775, 1.524670132679896, 1.9779878623472555, -35133.7948384405, -8229.633002095004, -12056.006677875394, 2789.4971387186242, -6137.391894299175, 347.2184125819449, 313.56897363838834, -763.0529003245208, -753.2713027045285, -463.7277561870353, 442.3965848250751, 144.76451622384843, -82.11980750356622, -241.51593372271438, -166.11661214239564, 161.0117266220481, 156.82867720048182, 45.04865333330787, -64.48252064437057, -23.748315205729725, 175.35196382208807, 75.91403661606171, -286.96291437231935, 32.43950758749915, 86.82629792655737, 17.332913738685377, -52.109964316334626, 147.96654517479746, -66.74616426635947, -30.131339361474026, -64.6842293414586, -20.401781789495175, -60.814467118058936, -33.126806506498966, -10.042152655421425, -51.312256336249625, 3.144366245462294, -3.71627624153237, 36.40376072528973, 0.4548085410526568, 8.77647477218483, -28.125389876423775, 2.49569238193056, -12.913454340121639, 4.879924205036842, -2.3377624767900205, -6.672954601090133, 6.202739337502919, -10.893634984359561, 12.032465269856662, -12.063043989303566, -0.34303639091355365, 5.016332629152714, 0.12086901313429266, -9.726503251923347, 6.137316418082435, -7.076062334661124, 7.3653218625323404, 3.5070409455817924, 2.301233891752652, 4.71929931757742, -1.926768238609477, -5.728496834707801, 0.05692591901005528, -4.227503980921206, 0.19035190488374848, -0.8161738905036682, -0.4714746073762517, 0.016165936440852846, 1.5320458160517845, -3.625921731256579, -1.3255082942715024, 1.0395488339674301, -2.629665545987187, 0.2524077098567754, -0.25955818195747327, -0.9738252465763915, -0.4436497764515863, 0.3498051835956417, -0.5126149363315342, -1.3513245580317377, 0.2982577901396226, 2.0905817811936993, -1.423686297008441, -0.5684747340003078, 0.06286388557579237, 1.556243536792186, 0.47664310848808533, 1.3381005503037402, 1.3274012761810585, -0.18103683328045683, 0.13158711423599634, -0.35216959119522606, 0.24205021276454275, -0.19716096928100413, 0.3411096425350699, 0.8983261097286253, -0.17492589746772325, -0.26859509238574053, -0.13780411398829884, 0.2481245213135157, -0.23952231622609954, -0.5478870274515413, 0.5484971724321479, 0.500298126046161, -0.06133469645540579, -0.3248140481935957, 0.313231347131103, 0.63465776568537, 0.5975958356568718, -0.21144062004099506, -0.6749983329678217, -0.32992632468938865, 0.3033181272449559, -0.12238950451054809, 0.06097724241096092, 0.2639722379565246, -0.2236154184593273, 0.06848499166746613, -0.30866773947200965, -0.13429432396519503, -0.2605157287139417, 0.0014308004863301527, 0.11389554910299449, -0.08035043575031331, -0.3428563737769905, -0.05785525732550667, -0.006029155567380151]",-5.31,-3.08,-5.574146341463415,-3.915,1.5,CF,_,25.0,PEDOT:PSS,PDINO,9.09,9.09,0.904,16.12,62.36
"[-49717.44525038922, -12636.368925517869, 8662.014529692702, 13989.66799431055, -12710.731738599578, 5768.359619834458, 4052.821409513619, 2892.3258172242554, 3975.138177839909, -2546.360479996174, -4857.257774239552, 3581.4344496239755, -290.43131470350147, 2069.511283141646, -1494.080525840569, 796.1195781851255, -47.50906955623097, 377.2579076379326, 1174.418438136752, 2541.7086921216273, -1775.4289265166303, -613.382581431477, 807.1548843891028, -1142.346987601732, 183.95260903520722, 283.5125741151543, -648.2609095353866, -631.5962647310182, -528.8033556651492, -623.2578217258801, 420.9359837296224, -13.232311826256447, 497.39941940678926, 185.88149915605354, -300.8657007646392, -156.12571055099977, 6.835054023595163, -157.92804649302886, 150.8657199715162, 344.5174180627798, 255.7003450449616, -43.057645280262136, -297.5267841599122, -120.21012570494301, 319.32189815380013, -35.81399744084341, -81.11943197651448, -35.38135512925892, -45.80073071493985, 5.210534083683484, -44.7565137679761, -10.025305031776133, 3.645697839397312, -49.49993084692086, 147.89574405190405, 47.95272099596012, 13.887982251449897, 18.56221279817682, -37.59366465493551, -1.900660345384587, -24.164861461171565, 17.279791944910837, 0.12302791007930836, 25.014855001844754, -2.3171173556270848, 8.600570557551086, 27.656579349717013, 27.55300815672669, -5.486295449726221, 7.158604790108619, 10.746846283983926, -4.013378250193835, 11.140720508252288, 1.698974849989126, -15.290810560513474, 5.234285898333766, -5.175043287345658, 5.895458596698374, 2.712091254083496, -7.753593593006357, -7.0024145263444275, -2.7123651674760776, -0.3818707967919135, 8.683283246903601, -7.544809445286759, -0.7929179961370174, 3.204895554361725, 4.070042129851171, -5.863370203243659, 3.3873127481166954, 0.20217445153844693, 1.5127458820463886, 2.3810649792237335, 2.920098207408921, 3.4910828703219003, 2.2950058494285646, 0.49574424491663294, -0.6452627050267219, -4.023788788600989, 1.3315188674083496, 0.2042558390515481, 2.0340346801140923, 1.7942832965218791, 0.6381477151046688, 0.11348960256391472, 0.28242732221460987, -2.968409627474066, -3.417583556038249, -0.02751376163171848, 2.1377048716574265, -0.1256166974096189, 0.7678083992458582, 0.5516255973544002, -0.07896021331505843, 0.19531234619683957, 0.8525359765080944, -0.2332824782860892, -0.5867531175962402, 0.3213663271235241, -0.3713535410423372, -1.290327411822144, 0.45082275908591374, 0.28061784497853637, 0.4908417706366244, -0.06988365181317135, 0.14752333452158695, 0.07225603426140204, 0.04782280217982726, -35133.7948384405, -8229.633002095004, -12056.006677875394, 2789.4971387186242, -6137.391894299175, 347.2184125819449, 313.56897363838834, -763.0529003245208, -753.2713027045285, -463.7277561870353, 442.3965848250751, 144.76451622384843, -82.11980750356622, -241.51593372271438, -166.11661214239564, 161.0117266220481, 156.82867720048182, 45.04865333330787, -64.48252064437057, -23.748315205729725, 175.35196382208807, 75.91403661606171, -286.96291437231935, 32.43950758749915, 86.82629792655737, 17.332913738685377, -52.109964316334626, 147.96654517479746, -66.74616426635947, -30.131339361474026, -64.6842293414586, -20.401781789495175, -60.814467118058936, -33.126806506498966, -10.042152655421425, -51.312256336249625, 3.144366245462294, -3.71627624153237, 36.40376072528973, 0.4548085410526568, 8.77647477218483, -28.125389876423775, 2.49569238193056, -12.913454340121639, 4.879924205036842, -2.3377624767900205, -6.672954601090133, 6.202739337502919, -10.893634984359561, 12.032465269856662, -12.063043989303566, -0.34303639091355365, 5.016332629152714, 0.12086901313429266, -9.726503251923347, 6.137316418082435, -7.076062334661124, 7.3653218625323404, 3.5070409455817924, 2.301233891752652, 4.71929931757742, -1.926768238609477, -5.728496834707801, 0.05692591901005528, -4.227503980921206, 0.19035190488374848, -0.8161738905036682, -0.4714746073762517, 0.016165936440852846, 1.5320458160517845, -3.625921731256579, -1.3255082942715024, 1.0395488339674301, -2.629665545987187, 0.2524077098567754, -0.25955818195747327, -0.9738252465763915, -0.4436497764515863, 0.3498051835956417, -0.5126149363315342, -1.3513245580317377, 0.2982577901396226, 2.0905817811936993, -1.423686297008441, -0.5684747340003078, 0.06286388557579237, 1.556243536792186, 0.47664310848808533, 1.3381005503037402, 1.3274012761810585, -0.18103683328045683, 0.13158711423599634, -0.35216959119522606, 0.24205021276454275, -0.19716096928100413, 0.3411096425350699, 0.8983261097286253, -0.17492589746772325, -0.26859509238574053, -0.13780411398829884, 0.2481245213135157, -0.23952231622609954, -0.5478870274515413, 0.5484971724321479, 0.500298126046161, -0.06133469645540579, -0.3248140481935957, 0.313231347131103, 0.63465776568537, 0.5975958356568718, -0.21144062004099506, -0.6749983329678217, -0.32992632468938865, 0.3033181272449559, -0.12238950451054809, 0.06097724241096092, 0.2639722379565246, -0.2236154184593273, 0.06848499166746613, -0.30866773947200965, -0.13429432396519503, -0.2605157287139417, 0.0014308004863301527, 0.11389554910299449, -0.08035043575031331, -0.3428563737769905, -0.05785525732550667, -0.006029155567380151]",-5.33,-3.09,-5.574146341463415,-3.915,1.5,CF,_,25.0,PEDOT:PSS,PDINO,7.51,7.51,0.908,15.22,54.32