DA_mordred_pca,HOMO_D_eV,LUMO_D_eV,HOMO_A_eV,LUMO_A_eV,D_A_ratio_m_m,solvent,solvent_additive,annealing_temperature,hole_contact_layer,electron_contact_layer,PCE_percent,calc_PCE_percent,Voc_V,Jsc_mA_cm_pow_neg2,FF_percent
"[-96218.45766618998, 38190.55941397739, 9341.19863978244, -298.0321681723599, 3837.039845288656, -633.0815150821412, -1318.980794355729, 952.285808193773, 528.6042339012306, -265.75996339509254, 85.60403763240663, 327.51410203292335, 339.9238825739942, -217.3938336123946, 80.63195135367053, -89.32083633853233, 32.19492584684396, -21.519530699055707, -3.6266113552724115, -73.04368468656011, 86.79421267883791, 28.9157151412623, 61.36551771993493, -20.29937758864763, -20.5145225649866, 1.7418865694839667, -22.377181673057002, 12.371971410300219, 34.95291732805864, 10.187903617561325, 15.16604348820858, 8.612060636243209, -1.1743635221400766, 7.0376682218726625, -4.093627003889395, 9.922048209550361, -15.554840299560915, -5.613674452998811, -0.2972665085945745, 4.368352481075529, -3.6043195792310403, 1.354200703685919, 2.8516893216669104, -4.255469010620061, 8.299974464104451, 1.2791418187815111, 1.2654639155740988, -2.171801897186288, 0.7563528622149089, 1.6309678283868045, 0.8461705305940708, 3.200150728577338, 4.514637663770485, 2.047832060332592, 0.988495732690156, 3.0209744065138135, -1.0787642655477623, -0.5848165573459294, 0.7450505682325215, 0.7138952097940852, -0.4513392507860554, 0.44000043161623736, 0.9076636698868725, -0.7553614212014921, -1.1367214236829248, 1.4883333004282742, -0.6534390261587824, -0.2020478861539523, 0.5979438493412772, 0.35044047212350127, 0.5920200016964907, -0.4545510567545348, 1.2436977886366634, 0.06188974879205844, 0.28770923066137755, 0.34025436763747585, 0.054350949740208376, 0.15963437295462057, -0.5109982693033068, 0.3735134387368202, 0.6870145153430531, 0.38216412404326583, -0.20553217795980494, -0.08297866327442271, -0.09481622405384194, -0.0074888306561717854, 0.442508262678758, 0.06098427500299941, -0.4139541096843904, 0.14832844029545988, -0.294554145147611, 0.015892796356977712, 0.1548609075275289, -0.005654655004061704, 0.07842930267586645, -0.20841896255037717, 0.07855635365402769, 0.01820150849557578, 0.012441639298426566, -0.05940224021880214, 0.12084591158474112, 0.026787833651969892, 0.019668535058581682, 0.05537380493890609, -0.03933624965050253, 0.009307974571203914, -0.023474896973407267, 0.020049719383548492, 0.003215210697313786, -0.04194589694978035, 0.04089452902605473, 0.02749361263995076, -0.07262298298187164, 0.015379054954234306, 0.0506532373375812, 0.01506994111025417, -0.02377975685210143, 0.009711782809699865, -0.04845640783987859, 0.03322037544939782, -0.008444174408285043, -0.002255075440015908, 0.022455666638478533, -0.005795103590370054, 0.02421124183525336, 0.01760123567103644, -0.016655303062377946, 0.018813816162650987, 110738.55970260264, 127890.10231735866, 28496.704139627276, -24340.223615858027, -11162.565480933821, -1151.833476105624, 2789.082741720864, 3673.214957200949, 775.5987248296303, -1337.5162256471783, -1301.2820813413655, 2049.230908960688, -1406.3964658272007, -758.299254264798, -811.1778175810073, 1738.3263708234122, -457.7478860478806, 97.14718441302966, -725.2178760985574, 260.8131702890772, 430.39818385321973, 523.80066590672, -375.98779012613625, -144.45084013332837, -393.4428441621294, -556.659259102398, 778.5913645053578, -386.77415767833713, 99.62218994795671, 144.212999364298, -3.4630383952998542, -12.303873174884416, 114.76868222173948, 215.72549568277532, 58.71382497650518, -59.00115663901275, -132.58131067037118, -101.0877138317557, 21.4165238677261, 34.29691269415798, 91.20930883153832, 228.27237388612576, -121.80588567641269, 69.62696436855975, 62.562586084709125, 8.163886370828052, 92.84982316519182, -77.89758408230972, 47.967525736332476, -53.00759968721826, -47.17742456792297, -28.421335737233505, -51.59243872802401, 20.329903577932043, -61.706293640662295, 44.5204346962617, -25.553949702976468, -24.597033855530753, -47.304011578109, -23.045977072214953, 8.38629486470542, -40.95079052600813, 5.729582170918718, -6.77669542499882, -30.488609090841862, -63.00859399392985, -19.192101695629713, -24.118770723874874, -36.37791915126188, 6.518908133954042, -11.155643849070358, 4.169575771562986, 14.504319908532722, -48.402692904163075, 9.328072004407527, 3.39412792823083, -2.4258266903416867, 9.121212254402508, 9.079844318469057, 3.2452638640767475, -11.785115179228661, 1.5935554146880406, 19.96789520627133, -3.292099122867455, 16.36144699746444, -19.376378236186653, 4.550316611102005, 6.013793710822384, -8.729190815685108, -12.23970832615748, 2.8493909331827467, 9.869980970351634, -4.8306446227826285, 11.325647681367656, 2.7564892647420294, -6.171101002130946, -14.75455781465125, 7.412065233498584, -0.09428135146206884, 8.50912854324514, -1.6613796407109689, 3.9124048003437935, 13.575505746495569, 2.4436930749397803, -0.21718057220229525, 2.5275075201465533, -1.0143012656616257, 2.088790022211999, -6.586413784307208, 0.35684593483716043, -3.4218190665198733, 5.676980395953478, -6.991867828655799, 2.8869340292779633, -2.0799846884732176, -7.146757479115216, -2.7409370056065114, 1.9523088534031352, -5.599971116045957, -0.9632034165876249, -4.197337980811474, 2.1504123846657546, -0.2581858335413916, 0.28817787336765477, -6.785291201502594, 6.623911049124519, 6.689960654052115, 3.0499838339700815]",-5.297714285714285,-3.4170000000000003,-5.46,-3.65,0.667,CB,DIO,25.0,MoOx,ZnO,9.02,9.02,0.96,14.03,67.0
"[-113112.0221877825, -128040.17814553897, -10298.628999373548, 3432.733628547574, 8973.419698991387, -3439.282848851566, 3781.954798850272, -829.6176407827634, 1085.3982123472952, 550.4456547111608, -435.8864607518108, -710.2243801656157, 1326.1626490602139, 8.665554309145136, -418.74269954022566, 187.45956881819745, 121.28409340748124, -4.298184849417794, 8.490690881116162, 52.913455571291934, 87.8658439058351, 43.51987937221628, 44.34062644746041, -49.48592701393579, 33.90433203557939, 4.676946288832141, -8.072828067571379, 10.567251849407967, -111.51899092106515, 28.525996512887673, 100.06773607887192, 12.062822784303606, -5.263110840715456, 7.512175011148145, 1.3785293027879106, 16.635643035520957, 4.039764278740535, -24.845372606161163, -22.45639579757742, 5.826741130519196, -0.7521496402381729, 12.53019855668316, -4.796028348520849, -8.538919188446641, 0.6386535221417375, 0.28586521885279126, 3.6235228381428186, -2.3848029517721017, -2.8923507347754054, 4.7855121583618825, 4.964071798130007, -3.784341510985911, 2.078751210970445, -0.29178313050513793, -1.7735955457794503, -3.129511596315538, 1.0268372421283374, -6.771806284949676, -0.36009360913607225, -0.2885819863777215, 0.7901843974181446, -4.113908987537911, -1.4204402500640185, -1.319936024894119, 0.9505850971635255, 0.3919987624149357, -1.1826527991339901, 0.25278811590131767, -0.10244841765984347, -0.06963895121972996, -0.3177515931384107, -0.252237779743524, 0.3418882282524356, -0.025334246562977114, 0.6085323469659869, -0.08140436503745718, -0.052060392777136144, -0.37716527456960947, 0.622708357653387, 0.7512702289248097, -0.18664277121496298, -0.4686124080250025, 0.11033475969473727, -0.17570642990008523, -0.01191175014561452, -0.5637582343619982, -0.15994847323332984, -0.4211786166219582, -0.07485781839410688, -0.23597185487598793, -0.10873839156025156, -0.12014790117991936, 0.17783780040360142, -0.16002430739202889, -0.04013287387633824, -0.3283820317790074, -0.14723447861628003, -0.013208994816466202, 0.10783506653254449, 0.02054895260968026, 0.0038103610396120757, -0.03785315965532643, -0.013199411282162288, -0.07276953001481701, 0.05509625405750462, -0.04625759139159413, 0.04027683863420606, -0.0025516021335834083, 0.03001469427361414, 0.09321320428330893, 0.06018147875735025, -0.03890482007976459, 0.055154607055641236, 0.0315222130303745, -0.0697597739780349, -0.024930229612809995, -0.01225032381139357, 0.015968003371716222, 0.02773925890596729, 0.0066110138903283655, -0.025875302652229593, 0.0026188898131849214, -0.006174358951955394, 0.01351968740192433, -0.0167749891402309, 0.027379330332195195, -0.004039592793215974, -0.00318420795111507, -55042.84107116488, -55351.15295050086, 31407.66101689898, -2232.3659613800937, 11564.103828600912, -1914.2044067544339, 8079.715952046853, -3475.8703854136593, 2539.3265629600046, -2463.916267289535, 2559.0099786617347, -3225.0190886476453, 210.84172049117228, 161.30448298413307, 1053.1006386727831, 510.61577843622, -1515.5523741084355, -1656.1656816480363, 278.89662090360844, -752.8100670006704, -38.05076093644607, 426.61819134252096, -522.67012988343, -361.938624147367, -365.02708234514193, -161.6679789949497, -44.03422085209115, -57.64405650638153, -321.2654249298588, 27.147640880832057, -155.32941074622428, -52.63124920373252, -55.42067852995311, -114.45981659616416, 95.76623351374622, -44.0290017393878, 73.67001087864821, -104.98825268546122, 85.6439233474357, -27.276522941427203, -79.35241261495312, -50.02973332434394, -29.21773238872413, 25.250948350231752, -28.071022547580753, -70.25937345472525, 45.90524938761246, -58.53091817170025, -12.771499818901646, 2.821051286378463, 41.50035618849949, -47.52824767404476, 16.841650925371567, 13.196282508186457, 4.147447392931383, -23.230046526285662, 39.292789298729474, -0.5449935074048824, -11.976243577289011, -12.53513239192597, 3.1764559015491685, -26.055287680047122, -14.70108065903544, 7.0214674210294135, -27.096865730367355, 2.3034973539831434, -24.690188493906252, -8.267021976266687, 28.546846985335915, 2.937136525098232, 7.354981529151672, 4.413821493605479, -7.529452223793015, -7.538415585104271, 8.843337716837977, 4.845468680014605, -14.898352864750901, -14.646078320009224, -5.835237215835264, 10.70732613252585, -0.542608913957296, -7.65032809572422, -7.940554866762108, -0.809435392104433, -1.2111740694860273, -3.2529470841886052, -4.9615709852691445, -0.3359778045686639, -0.823058846368868, 1.4326881399156655, -0.6640673148981762, 5.622012397407744, -3.4223905182559733, 1.9173437662479813, 1.9489357289257185, 4.687291630719706, -3.7700097072856664, 6.24540253162146, -3.3827875978188633, 2.2239964366483207, -7.811001422332019, 0.17341325502317773, -0.9539159275127655, -0.614641263843474, 9.40051735840823, -0.9713413989801083, -0.6073155623643594, 1.5608657712109597, 0.6491457075713514, 0.9124999241932059, 2.359198655688992, -2.164299390024432, -1.9911483638826724, -1.9575481411905944, -0.06451590658441653, 1.6952513180929571, -3.2253914988350445, 0.33869211212141437, 3.2292052940434637, -0.513316963652013, -1.5798041048758371, -2.342285552807212, -2.090510864178087, 1.144184818586421, 0.45456719904957205, -0.3102592515308231, 0.9943346118460141, 1.6960448554045655]",-5.057777777777777,-2.989444444444445,-5.535,-3.74,1.0,CB,_,130.0,MoOx,ZnO,6.3,6.0,0.72,13.9,60.0
"[-113112.0221877825, -128040.17814553897, -10298.628999373548, 3432.733628547574, 8973.419698991387, -3439.282848851566, 3781.954798850272, -829.6176407827634, 1085.3982123472952, 550.4456547111608, -435.8864607518108, -710.2243801656157, 1326.1626490602139, 8.665554309145136, -418.74269954022566, 187.45956881819745, 121.28409340748124, -4.298184849417794, 8.490690881116162, 52.913455571291934, 87.8658439058351, 43.51987937221628, 44.34062644746041, -49.48592701393579, 33.90433203557939, 4.676946288832141, -8.072828067571379, 10.567251849407967, -111.51899092106515, 28.525996512887673, 100.06773607887192, 12.062822784303606, -5.263110840715456, 7.512175011148145, 1.3785293027879106, 16.635643035520957, 4.039764278740535, -24.845372606161163, -22.45639579757742, 5.826741130519196, -0.7521496402381729, 12.53019855668316, -4.796028348520849, -8.538919188446641, 0.6386535221417375, 0.28586521885279126, 3.6235228381428186, -2.3848029517721017, -2.8923507347754054, 4.7855121583618825, 4.964071798130007, -3.784341510985911, 2.078751210970445, -0.29178313050513793, -1.7735955457794503, -3.129511596315538, 1.0268372421283374, -6.771806284949676, -0.36009360913607225, -0.2885819863777215, 0.7901843974181446, -4.113908987537911, -1.4204402500640185, -1.319936024894119, 0.9505850971635255, 0.3919987624149357, -1.1826527991339901, 0.25278811590131767, -0.10244841765984347, -0.06963895121972996, -0.3177515931384107, -0.252237779743524, 0.3418882282524356, -0.025334246562977114, 0.6085323469659869, -0.08140436503745718, -0.052060392777136144, -0.37716527456960947, 0.622708357653387, 0.7512702289248097, -0.18664277121496298, -0.4686124080250025, 0.11033475969473727, -0.17570642990008523, -0.01191175014561452, -0.5637582343619982, -0.15994847323332984, -0.4211786166219582, -0.07485781839410688, -0.23597185487598793, -0.10873839156025156, -0.12014790117991936, 0.17783780040360142, -0.16002430739202889, -0.04013287387633824, -0.3283820317790074, -0.14723447861628003, -0.013208994816466202, 0.10783506653254449, 0.02054895260968026, 0.0038103610396120757, -0.03785315965532643, -0.013199411282162288, -0.07276953001481701, 0.05509625405750462, -0.04625759139159413, 0.04027683863420606, -0.0025516021335834083, 0.03001469427361414, 0.09321320428330893, 0.06018147875735025, -0.03890482007976459, 0.055154607055641236, 0.0315222130303745, -0.0697597739780349, -0.024930229612809995, -0.01225032381139357, 0.015968003371716222, 0.02773925890596729, 0.0066110138903283655, -0.025875302652229593, 0.0026188898131849214, -0.006174358951955394, 0.01351968740192433, -0.0167749891402309, 0.027379330332195195, -0.004039592793215974, -0.00318420795111507, -58271.37635067238, 3250.0303322004784, 51719.34972459356, 23507.03123308437, 5670.665122506709, 10843.048955015222, 956.1411890740183, -6191.596195002911, 1592.3682832350703, 3264.3351507951593, 528.743510658187, -3942.8474360245873, 987.2942231455397, -1776.642703364358, 1512.8180682980837, 1036.7588450471555, -895.060031378936, 87.45543189693967, 206.67545803479985, -294.29579199562227, 101.51394560635822, 833.9207273292641, -195.3712957600427, -617.3639288463719, -36.59722090886339, -328.50580942332374, -176.97751434243338, 191.15853220606385, 562.2064502896733, -67.19747731386309, 130.71186871463817, 21.517930267550128, -71.37335494640175, -143.97708348058075, -42.50464387479903, -150.3914380773976, 324.8016214027518, 51.46704682236805, -45.19829282053269, 12.680670277034721, 18.113774073397565, 72.57665273818321, -90.16208493370249, -107.91405562911024, 40.274795974621156, 24.256210094691866, 61.55025132896995, -133.43931740135784, -24.465673955555104, 32.976107869375525, 80.40084533185657, 19.93246764345733, 17.245521946829143, 26.25679161539925, 36.72725174001596, -41.92626127553143, 16.574854503503218, 4.294021530824978, -19.02524483381825, -27.675195271153484, 0.9392274970331158, -9.742248351126655, -37.22429565866841, 33.110842139932274, -4.721245582305798, -12.77230596066193, 3.6606057472354063, 22.67401715124221, -2.6193451906413703, 17.0124055280708, -7.702090654418207, -1.4939504930092666, 7.030202935731339, -4.456722102472504, -6.877486805187683, -9.053234811871036, 0.06609706418467098, -12.350248270251871, 0.2373573375406295, 19.91752134928666, -4.8262537095976725, -9.972136417522997, -13.872129417440386, -2.0320738772628744, 0.08602944342771934, 3.1614985717764412, 11.817162021110736, 6.04408283762686, -3.802808955705798, -4.7631157115509595, 4.558875794979187, -1.5268337002544285, -4.0448225561898425, -0.8943945508134448, 3.7727244598402763, -4.734696764022473, 3.0144351499554247, 7.161647463829775, -0.3783927788229935, -0.9332480211429584, 2.267286534594625, -3.358359403745368, 0.5667604484669884, -2.9549755855869257, -3.220685082093489, 1.4955931833433862, -1.1909443509427966, -0.8019512942597906, 1.9879188320733827, -0.7235487487531245, -1.2726788326036242, 1.7513667705063938, -0.08473429562496904, 2.1204729133037556, -2.5911803654412147, 3.0764734436759724, -2.302578574255591, 4.55912383164166, 0.2655199877234864, 3.277093849597911, 1.8818670357650058, -2.0584310363035803, 1.9717979709137223, 2.9754416852941787, -2.804577745936036, 1.3399918953943413, 2.3443150757477795, -0.25494040620284153]",-5.057777777777777,-2.989444444444445,-5.58,-3.9,1.0,CB,_,130.0,MoOx,ZnO,6.0,5.7,0.76,12.1,62.0