DA_mordred_pca,HOMO_D_eV,LUMO_D_eV,HOMO_A_eV,LUMO_A_eV,D_A_ratio_m_m,solvent,solvent_additive,annealing_temperature,hole_contact_layer,electron_contact_layer,PCE_percent,calc_PCE_percent,Voc_V,Jsc_mA_cm_pow_neg2,FF_percent
"[-96218.45766618998, 38190.55941397739, 9341.19863978244, -298.0321681723599, 3837.039845288656, -633.0815150821412, -1318.980794355729, 952.285808193773, 528.6042339012306, -265.75996339509254, 85.60403763240663, 327.51410203292335, 339.9238825739942, -217.3938336123946, 80.63195135367053, -89.32083633853233, 32.19492584684396, -21.519530699055707, -3.6266113552724115, -73.04368468656011, 86.79421267883791, 28.9157151412623, 61.36551771993493, -20.29937758864763, -20.5145225649866, 1.7418865694839667, -22.377181673057002, 12.371971410300219, 34.95291732805864, 10.187903617561325, 15.16604348820858, 8.612060636243209, -1.1743635221400766, 7.0376682218726625, -4.093627003889395, 9.922048209550361, -15.554840299560915, -5.613674452998811, -0.2972665085945745, 4.368352481075529, -3.6043195792310403, 1.354200703685919, 2.8516893216669104, -4.255469010620061, 8.299974464104451, 1.2791418187815111, 1.2654639155740988, -2.171801897186288, 0.7563528622149089, 1.6309678283868045, 0.8461705305940708, 3.200150728577338, 4.514637663770485, 2.047832060332592, 0.988495732690156, 3.0209744065138135, -1.0787642655477623, -0.5848165573459294, 0.7450505682325215, 0.7138952097940852, -0.4513392507860554, 0.44000043161623736, 0.9076636698868725, -0.7553614212014921, -1.1367214236829248, 1.4883333004282742, -0.6534390261587824, -0.2020478861539523, 0.5979438493412772, 0.35044047212350127, 0.5920200016964907, -0.4545510567545348, 1.2436977886366634, 0.06188974879205844, 0.28770923066137755, 0.34025436763747585, 0.054350949740208376, 0.15963437295462057, -0.5109982693033068, 0.3735134387368202, 0.6870145153430531, 0.38216412404326583, -0.20553217795980494, -0.08297866327442271, -0.09481622405384194, -0.0074888306561717854, 0.442508262678758, 0.06098427500299941, -0.4139541096843904, 0.14832844029545988, -0.294554145147611, 0.015892796356977712, 0.1548609075275289, -0.005654655004061704, 0.07842930267586645, -0.20841896255037717, 0.07855635365402769, 0.01820150849557578, 0.012441639298426566, -0.05940224021880214, 0.12084591158474112, 0.026787833651969892, 0.019668535058581682, 0.05537380493890609, -0.03933624965050253, 0.009307974571203914, -0.023474896973407267, 0.020049719383548492, 0.003215210697313786, -0.04194589694978035, 0.04089452902605473, 0.02749361263995076, -0.07262298298187164, 0.015379054954234306, 0.0506532373375812, 0.01506994111025417, -0.02377975685210143, 0.009711782809699865, -0.04845640783987859, 0.03322037544939782, -0.008444174408285043, -0.002255075440015908, 0.022455666638478533, -0.005795103590370054, 0.02421124183525336, 0.01760123567103644, -0.016655303062377946, 0.018813816162650987, -10550.674599888425, 28310.668511440283, -10723.02872674822, -863.2787784074471, -3814.6188195841805, 1430.7684490615848, -1975.9738712671942, -573.1392287927827, -1482.0822950875215, -992.7592330162074, 617.3117097896629, 606.4373386083615, -135.9876971885085, -2206.43306969693, -871.7897754259309, 400.7386006466961, -682.0682554081618, 743.9523236271062, -549.7224452847429, -789.3458442791782, -296.13276156120526, -53.89709756817791, 265.0700457944308, -166.68943882516763, -20.594126759245455, 164.31564393785538, -357.92343988716317, 697.499685735583, 24.87207184384789, 223.6154708331518, 324.6605662770527, -33.35053288874374, 219.54979555382943, -4.5194797125920445, -54.24903593934516, 24.055348722875333, -66.8376910780524, -182.84119744708516, -128.187952424152, 196.0202700097909, -77.37766775609663, 152.20761980349303, 74.34327412451303, 7.858518815341764, 113.08428094778459, 18.648982464582634, 143.71194179219884, -161.7035239706182, -39.91956185092531, -87.74138487344428, 18.87381264760041, -38.718582094136835, 32.25945096443805, -28.130550527605763, -75.7918930878163, 19.69086382278185, 23.98997196186924, 40.565964077469175, 42.20836709578161, 29.190206278632616, -6.609857704739245, -15.640609166068327, -1.244762227815663, 9.16239884192941, 48.52520127896264, -25.32057197318792, -4.009291401980686, 17.52370969768078, 11.49170474019664, -31.76051827424547, -2.1867373573560194, 12.48717556240272, 4.383360423382399, -26.700551500094015, -28.396021841519982, -6.487664754177523, -1.5923347054598462, -0.18053753215684676, -33.38714926986299, 9.243162196879815, 17.163182480472308, 17.941570202368887, -11.620674925482597, 12.68356877963128, 15.209966539007215, 2.063267065722602, 0.750744189565518, 4.744758156378229, -24.415924840451705, 1.2545984697737333, -4.744332417768476, -1.0112561791102017, -5.694718276353594, 6.713140666844172, -2.281053873462895, -0.778064046573137, -6.874160586189818, 1.0508834996219845, 6.752664606358557, -4.878500425663219, 2.974272931026226, -3.069297661740598, -10.486971844112166, -1.5358022942453393, 2.8696149389062917, 1.729451178935375, -3.6022987284144046, 4.516850616157629, -4.493862023805238, -0.6024775481408398, -2.8523134989462156, -2.014656350741401, -4.091710670241142, -1.626398082043977, 3.1318143981521005, -3.412877004824008, 2.3453947974875504, -2.6436956253066564, -2.913102772214865, -0.29528761654650637, 1.0338371682617342, 2.9714117288083393, 1.6534928309616816, 0.8865403942596881, -0.8082669246099257, -2.330419207641733, 2.5463388990985116, -0.9245141980809581]",-5.297714285714285,-3.4170000000000003,-5.36,-3.31,1.0,CB,_,130.0,PEDOT:PSS,PFN-Br,4.9,4.94,0.98,9.8,51.4
"[-96218.45766618998, 38190.55941397739, 9341.19863978244, -298.0321681723599, 3837.039845288656, -633.0815150821412, -1318.980794355729, 952.285808193773, 528.6042339012306, -265.75996339509254, 85.60403763240663, 327.51410203292335, 339.9238825739942, -217.3938336123946, 80.63195135367053, -89.32083633853233, 32.19492584684396, -21.519530699055707, -3.6266113552724115, -73.04368468656011, 86.79421267883791, 28.9157151412623, 61.36551771993493, -20.29937758864763, -20.5145225649866, 1.7418865694839667, -22.377181673057002, 12.371971410300219, 34.95291732805864, 10.187903617561325, 15.16604348820858, 8.612060636243209, -1.1743635221400766, 7.0376682218726625, -4.093627003889395, 9.922048209550361, -15.554840299560915, -5.613674452998811, -0.2972665085945745, 4.368352481075529, -3.6043195792310403, 1.354200703685919, 2.8516893216669104, -4.255469010620061, 8.299974464104451, 1.2791418187815111, 1.2654639155740988, -2.171801897186288, 0.7563528622149089, 1.6309678283868045, 0.8461705305940708, 3.200150728577338, 4.514637663770485, 2.047832060332592, 0.988495732690156, 3.0209744065138135, -1.0787642655477623, -0.5848165573459294, 0.7450505682325215, 0.7138952097940852, -0.4513392507860554, 0.44000043161623736, 0.9076636698868725, -0.7553614212014921, -1.1367214236829248, 1.4883333004282742, -0.6534390261587824, -0.2020478861539523, 0.5979438493412772, 0.35044047212350127, 0.5920200016964907, -0.4545510567545348, 1.2436977886366634, 0.06188974879205844, 0.28770923066137755, 0.34025436763747585, 0.054350949740208376, 0.15963437295462057, -0.5109982693033068, 0.3735134387368202, 0.6870145153430531, 0.38216412404326583, -0.20553217795980494, -0.08297866327442271, -0.09481622405384194, -0.0074888306561717854, 0.442508262678758, 0.06098427500299941, -0.4139541096843904, 0.14832844029545988, -0.294554145147611, 0.015892796356977712, 0.1548609075275289, -0.005654655004061704, 0.07842930267586645, -0.20841896255037717, 0.07855635365402769, 0.01820150849557578, 0.012441639298426566, -0.05940224021880214, 0.12084591158474112, 0.026787833651969892, 0.019668535058581682, 0.05537380493890609, -0.03933624965050253, 0.009307974571203914, -0.023474896973407267, 0.020049719383548492, 0.003215210697313786, -0.04194589694978035, 0.04089452902605473, 0.02749361263995076, -0.07262298298187164, 0.015379054954234306, 0.0506532373375812, 0.01506994111025417, -0.02377975685210143, 0.009711782809699865, -0.04845640783987859, 0.03322037544939782, -0.008444174408285043, -0.002255075440015908, 0.022455666638478533, -0.005795103590370054, 0.02421124183525336, 0.01760123567103644, -0.016655303062377946, 0.018813816162650987, 18174.33825490201, 34414.37877938493, -9417.302580874173, -2779.4210455619977, -2958.898632278083, 797.2577864204992, -1757.600516862777, 274.5153679442194, -1717.1535457301056, -2471.4979876122466, 905.7050182459459, 504.427141014565, 708.0759623985354, -2277.1972060232697, 833.6623769110934, 555.913419724382, -571.1905971850833, -117.00514280570155, -663.0730275458154, -1237.9988161937133, -361.49770463101277, 197.43389297812257, -18.476698236305282, 305.61988918420434, -661.2812306340853, 505.43060948766464, 128.03601988667353, 306.59455736548796, 199.28034478207462, 98.64182843429606, 463.22921110611594, -109.70488035809493, 199.76325566836152, -196.97168793781594, -43.204695454602714, 106.18783614105662, -139.5282685737937, -185.88428318802872, -126.0034900214703, 147.4654133526542, -104.35269339734779, 85.68920698677161, 31.374966480902287, 28.394158978836884, 232.5646740108657, -1.1062861889425761, 152.45133083606044, -111.62056143700752, -8.048397098414725, -57.4543570314795, 1.8060094301181877, -3.3690813159829105, 62.371259736500676, 10.656484620986397, -99.23424445357213, 46.7755602679233, 22.97982293335035, 46.04211078623632, 23.473552273606458, 13.406263171832094, -15.191107932912708, -29.853341413618082, -23.45916594345384, 26.426228083684634, 48.71432549799328, -31.904605839382786, 6.797545184160789, 12.629418339892277, 14.09981542068428, -23.961152169356993, 0.5426994691027076, -9.861544538643109, -1.7401331774858733, -16.274420302555804, -34.41397241893045, -4.739452914937431, 5.450587849810377, -27.678991126795154, -25.938569027834447, 12.584155942681548, 11.752408455775532, 17.108480464995306, -4.650417406619724, -4.566121605130945, 20.85607284079662, -4.098199632518405, -1.8545521911383354, -2.7204257232448406, -26.599470053932034, -3.7916127964552206, -5.40190868774674, -2.4814245540793394, 7.95065151711653, -12.330942175068756, 3.8594913033577996, 0.12188160792840996, -12.242843049657996, -2.208182662845741, -0.4065669019276239, 6.080408026908145, 6.692673967486881, -4.308921601364723, -4.064995751097088, -6.743108499358542, 2.4198741827561427, -1.1926345105134804, -3.3682360046622897, -0.0722047405315207, -3.795797715197578, 5.160734982349609, -2.47602211126668, -1.688301581580557, -3.6957545712518254, 2.2939536199134523, -0.3792448874420913, -2.7799805257593704, -0.7908870508449084, -5.311044880508617, -5.349395642624369, -2.734429905367847, 6.736366753270393, 1.418933500354358, -1.8696779211905898, 0.0738137749303096, -3.044044993211656, -1.5580932121811673, 4.310026875797128, -0.5815095040729386]",-5.297714285714285,-3.4170000000000003,-5.35,-3.3,1.0,CB,_,130.0,PEDOT:PSS,PFN-Br,4.2,4.17,0.95,9.16,47.9
"[-104962.7663977064, -80994.69477143629, 198.02697460794434, -3350.493168720447, -3047.419232833515, -2038.260791053891, -2262.1054222253033, 2230.780940619858, -225.25559773802843, -1042.64624858164, 224.0689074375423, -959.6939439988263, 175.48031114982254, -195.33645878780453, -500.6779488650926, -331.4233845357082, 4.625573062107605, -459.4043751051129, 401.5767690150666, 558.7024219874041, -788.8502566742062, 524.7984664034489, 23.631097807601122, 381.3487534321726, -18.506733095352047, 135.9782523139894, -356.87504690706896, 45.644341024777304, 193.08911058014502, -150.90674973839242, -191.8430266714472, 34.32298515233564, -79.11863644935588, -107.24486410279198, -330.29393596006577, -64.31135697839011, 69.2797674040775, 196.41127644037033, 31.892733764730252, -22.686158759033148, -144.97292990624274, -64.61420729840617, -33.562155253846015, 45.53262897563212, -6.1405458568671065, 5.0767992461629206, -9.863157068478642, -18.117152238407783, 19.56207692508572, -19.234086159352017, 40.218300580329654, 28.831848085144856, -36.8219022190868, -7.53169378920461, 22.849886145314947, -10.979831708733364, -12.562046245055893, -3.4530911396480235, -42.67479278464194, -8.310099021302676, 21.738110102859878, -24.880956652528567, 4.0665733953828465, 16.44702116844084, -8.3299050532464, -9.69125658352096, -15.241143963820306, -4.10550185245679, 3.510594734622856, 3.2072406631825707, 9.737442684773349, 3.913912038026801, 9.511310441551753, 2.6750294751153803, -0.14653350039591118, 0.514686875171904, 5.867212070395411, 1.4341450194165581, 8.93346234937869, -2.8383766935872075, 2.008131139686128, -2.099235117388776, 6.459929123469713, 2.587877513202912, 3.2064644052568667, -0.8845439748090484, -0.11101443023289459, -1.7454360657063575, 1.2347659683540293, -0.737653151831708, -3.5739212807789613, -1.8300457671489454, -0.9848976996066057, -1.4119852181342534, -0.41978445868191017, -3.1306163340944195, -0.6926424295134219, 3.1247331969001095, 0.8963319607549565, 0.3619557144610548, -1.9255737871490837, -1.4357615230020588, -1.085611323741876, 0.5629678529845918, -2.0409099144822633, -0.5379332148731422, 0.13446037910258468, -0.42635308253467663, 0.16155476691467285, -0.34022681627464735, 0.25979518569048565, -0.4439933168161705, -0.3634613525332222, -0.3136182081940717, -0.23569698790332438, -0.016376823629475012, -0.41886613329012334, 0.252121378020739, 0.006651755235882462, -0.20628209772564254, 0.2807594671246392, 0.0037581344550687845, 0.13402377830586154, 0.11634493723326145, -0.09080879199103009, -0.07781566607297918, 0.2779371665800312, -0.20734135903973083, -35133.7948384405, -8229.633002095004, -12056.006677875394, 2789.4971387186242, -6137.391894299175, 347.2184125819449, 313.56897363838834, -763.0529003245208, -753.2713027045285, -463.7277561870353, 442.3965848250751, 144.76451622384843, -82.11980750356622, -241.51593372271438, -166.11661214239564, 161.0117266220481, 156.82867720048182, 45.04865333330787, -64.48252064437057, -23.748315205729725, 175.35196382208807, 75.91403661606171, -286.96291437231935, 32.43950758749915, 86.82629792655737, 17.332913738685377, -52.109964316334626, 147.96654517479746, -66.74616426635947, -30.131339361474026, -64.6842293414586, -20.401781789495175, -60.814467118058936, -33.126806506498966, -10.042152655421425, -51.312256336249625, 3.144366245462294, -3.71627624153237, 36.40376072528973, 0.4548085410526568, 8.77647477218483, -28.125389876423775, 2.49569238193056, -12.913454340121639, 4.879924205036842, -2.3377624767900205, -6.672954601090133, 6.202739337502919, -10.893634984359561, 12.032465269856662, -12.063043989303566, -0.34303639091355365, 5.016332629152714, 0.12086901313429266, -9.726503251923347, 6.137316418082435, -7.076062334661124, 7.3653218625323404, 3.5070409455817924, 2.301233891752652, 4.71929931757742, -1.926768238609477, -5.728496834707801, 0.05692591901005528, -4.227503980921206, 0.19035190488374848, -0.8161738905036682, -0.4714746073762517, 0.016165936440852846, 1.5320458160517845, -3.625921731256579, -1.3255082942715024, 1.0395488339674301, -2.629665545987187, 0.2524077098567754, -0.25955818195747327, -0.9738252465763915, -0.4436497764515863, 0.3498051835956417, -0.5126149363315342, -1.3513245580317377, 0.2982577901396226, 2.0905817811936993, -1.423686297008441, -0.5684747340003078, 0.06286388557579237, 1.556243536792186, 0.47664310848808533, 1.3381005503037402, 1.3274012761810585, -0.18103683328045683, 0.13158711423599634, -0.35216959119522606, 0.24205021276454275, -0.19716096928100413, 0.3411096425350699, 0.8983261097286253, -0.17492589746772325, -0.26859509238574053, -0.13780411398829884, 0.2481245213135157, -0.23952231622609954, -0.5478870274515413, 0.5484971724321479, 0.500298126046161, -0.06133469645540579, -0.3248140481935957, 0.313231347131103, 0.63465776568537, 0.5975958356568718, -0.21144062004099506, -0.6749983329678217, -0.32992632468938865, 0.3033181272449559, -0.12238950451054809, 0.06097724241096092, 0.2639722379565246, -0.2236154184593273, 0.06848499166746613, -0.30866773947200965, -0.13429432396519503, -0.2605157287139417, 0.0014308004863301527, 0.11389554910299449, -0.08035043575031331, -0.3428563737769905, -0.05785525732550667, -0.006029155567380151]",-5.6,-3.75,-5.574146341463415,-3.915,1.0,CF:n-hexane (9:1),_,25.0,PEDOT:PSS,MoOx,6.4,6.39,1.04,10.6,58.0