DA_mordred_pca,HOMO_D_eV,LUMO_D_eV,HOMO_A_eV,LUMO_A_eV,D_A_ratio_m_m,solvent,solvent_additive,annealing_temperature,hole_contact_layer,electron_contact_layer,PCE_percent,calc_PCE_percent,Voc_V,Jsc_mA_cm_pow_neg2,FF_percent
"[-104495.22142048345, -77109.54152667851, 3007.466044919894, -2786.2716479190804, -5071.780375696328, -1338.701615285845, -1184.2162250219553, 1185.0950364632358, -1573.322960240118, 318.53934578935787, -377.2974142952762, -702.5111356738145, 235.8540044753528, 427.5405027288041, 687.1906102496923, 243.69351123484068, 182.97071941679576, -74.50718315785775, 3.9575938493005514, 80.42090460851341, -256.5676779510409, -66.87643718769709, 12.959036183534295, -143.9030748671191, 107.07312332242265, -166.47519535262745, 181.11199674742372, -136.02040317797383, 96.31625153309716, -129.67313537555998, -16.727763428971656, -205.76627456126306, -51.28229146564661, 8.6556870761438, -57.430625485295764, 29.829140664012698, -14.259920739490298, 47.02339316747424, -35.888385599256814, -26.582572953751097, 41.11194112491408, 43.08155774143907, 13.938006396086024, -25.154855431931054, 34.807184386832915, 4.243997452948548, 50.224768858583644, 75.70357043896358, -0.8331479323027509, 4.7014836630991965, 4.833094626944032, -17.519830348722365, -0.07385049034527924, -6.985716170311136, -0.13996753067647916, -12.197628194761059, -14.68511813600822, 3.612558981204316, 23.319272314835104, 5.351675663029056, -16.034958667974053, -10.713392167871106, 55.60695161684606, -5.506560637184549, 23.219482801026725, 14.19435212967431, 0.7173888606876915, -2.2082322103591494, 16.78483332496154, -2.8157731764900547, 11.809083106538559, 5.391904809758067, -0.28654564683058537, 7.0391380780838055, 6.339839021601094, 6.594764271468456, 4.741784999701963, 6.770981027970276, -6.770477548608545, -9.455016342785925, 2.6790983679820357, -0.7456400025787886, 4.8555514005646145, -0.23675804633273856, 13.68024714094443, -3.302103804194914, -2.6435106553481074, 4.976478643800618, -1.3108059023917011, 0.8748080019146336, -2.346023491511531, -4.632875562712748, -4.606472934748375, 3.2415786546679923, -1.8226632743422275, 6.546267282886745, 1.3515030513499813, -2.6752614004593767, -1.9802559924975043, 2.982985159007837, -0.8296619505851197, -0.48694907186862135, 4.571036061909744, -3.891135326081674, -4.437015900151088, -1.1987687116731394, 5.721171652483221, -4.323434624413533, 2.3133191147365313, -2.937393594385142, -1.4089405040002845, 0.18040392141841188, 1.3255106918654809, 4.030024225793724, -2.0555931408724746, 0.7361197301754849, 0.8097540051897525, 0.1378027455702897, 0.8533394743015528, 2.634092107877997, -1.062405466240735, -0.4453397858048582, 1.3894357240675514, 0.4372009154295462, -0.529051948268247, 0.1920029040527993, -1.9725082866470451, -0.23094280183680382, -5591.527114847875, 110512.51638443682, 4402.525842356583, -7896.525057380215, -4322.942643536753, -5348.205896766634, 1989.2119981158685, 1032.6325690794333, -699.2951332420075, 3882.472653649431, 708.2534377803936, 1171.8232396315152, 561.2441959126379, 48.582007182742814, -764.5438772453508, 374.96617250763745, -159.46768215820794, -103.600823117956, 1526.0647100506449, 567.8689428823475, 186.87642484472985, 420.6378134527247, 611.0582113943168, -556.5455573165412, 599.5580614655718, -51.13552461784593, 25.03930986643985, 67.90684888566328, 268.58054335547, 196.26911784238837, -158.34063053892274, 142.89605256100276, -52.62996160177414, -258.2786395008893, 220.546516332784, 154.3311965663467, -66.50484156556064, -20.304558186125576, -47.647960840919, -35.88015097366508, 182.60832784091377, -23.75862903511893, -9.772763301712473, 72.4413002967784, -28.240560705013323, -35.13548547549604, -32.410266458665575, 42.156416219238395, -5.790281854782933, -52.74884722877903, 34.890292416902184, 50.21881705877567, -13.042447912820904, 1.7019849362526145, 23.470932714583967, -20.175067017365535, -48.60820177151987, 13.194274408815716, 54.38300126382535, -0.10585818308311445, 11.410361402377092, 22.589610489651797, -16.92447874300413, -4.323247214164418, -0.9698239709356073, -39.59488190855374, 15.26160575566298, 0.8094506027079831, -2.7283101808010253, -4.84588038256603, 2.0402034537803004, 5.753133337707251, -9.551951979623567, -16.637162288382772, 0.028552960087051105, -3.510672668041167, -2.2539466461938424, 6.108041910314945, -3.221319791403033, 9.878196613928807, -1.4300861638761475, -6.065396415674613, 4.896728362844524, 2.128328693565848, 1.0814277475644474, 11.331741129865165, -1.6869477647328708, 5.933468655195895, 3.319605901092471, -6.044598507688235, -2.231579694450268, -2.2360363947733504, -0.7702831859824357, 3.0062623389412835, -0.2783071181053458, -1.9570151880273023, -2.1903051954519057, 1.3767211068783176, -7.355461686800963, 2.540927330932277, -4.268876209460807, -4.4987068687209835, 6.271380634831081, 4.209952380310893, 1.1488801765197394, 1.0360190936279299, -2.0449841164664093, -0.4323468197871527, 0.13288406080231852, -0.11315280906761416, -0.3349336248025594, -2.1190207519518722, -1.8352396423189674, 2.157477716578015, 0.35952904834319455, -0.1594920526948158, 1.5307961862461, -0.8755439925915915, 3.730289250235572, 1.5369351686200048, 3.2155247470132915, -1.3549357061327898, -1.4620594392660298, 1.4336748444811889, -1.4034991299750637, 0.1765192135431306, -0.45239863461193863, -3.2470463554371634]",-5.09,-3.48,-5.455,-3.8625,0.667,CB,DIO,100.0,PEDOT:PSS,PFN-Br,4.9,4.95,0.9,11.7,47.0
"[-104495.22142048345, -77109.54152667851, 3007.466044919894, -2786.2716479190804, -5071.780375696328, -1338.701615285845, -1184.2162250219553, 1185.0950364632358, -1573.322960240118, 318.53934578935787, -377.2974142952762, -702.5111356738145, 235.8540044753528, 427.5405027288041, 687.1906102496923, 243.69351123484068, 182.97071941679576, -74.50718315785775, 3.9575938493005514, 80.42090460851341, -256.5676779510409, -66.87643718769709, 12.959036183534295, -143.9030748671191, 107.07312332242265, -166.47519535262745, 181.11199674742372, -136.02040317797383, 96.31625153309716, -129.67313537555998, -16.727763428971656, -205.76627456126306, -51.28229146564661, 8.6556870761438, -57.430625485295764, 29.829140664012698, -14.259920739490298, 47.02339316747424, -35.888385599256814, -26.582572953751097, 41.11194112491408, 43.08155774143907, 13.938006396086024, -25.154855431931054, 34.807184386832915, 4.243997452948548, 50.224768858583644, 75.70357043896358, -0.8331479323027509, 4.7014836630991965, 4.833094626944032, -17.519830348722365, -0.07385049034527924, -6.985716170311136, -0.13996753067647916, -12.197628194761059, -14.68511813600822, 3.612558981204316, 23.319272314835104, 5.351675663029056, -16.034958667974053, -10.713392167871106, 55.60695161684606, -5.506560637184549, 23.219482801026725, 14.19435212967431, 0.7173888606876915, -2.2082322103591494, 16.78483332496154, -2.8157731764900547, 11.809083106538559, 5.391904809758067, -0.28654564683058537, 7.0391380780838055, 6.339839021601094, 6.594764271468456, 4.741784999701963, 6.770981027970276, -6.770477548608545, -9.455016342785925, 2.6790983679820357, -0.7456400025787886, 4.8555514005646145, -0.23675804633273856, 13.68024714094443, -3.302103804194914, -2.6435106553481074, 4.976478643800618, -1.3108059023917011, 0.8748080019146336, -2.346023491511531, -4.632875562712748, -4.606472934748375, 3.2415786546679923, -1.8226632743422275, 6.546267282886745, 1.3515030513499813, -2.6752614004593767, -1.9802559924975043, 2.982985159007837, -0.8296619505851197, -0.48694907186862135, 4.571036061909744, -3.891135326081674, -4.437015900151088, -1.1987687116731394, 5.721171652483221, -4.323434624413533, 2.3133191147365313, -2.937393594385142, -1.4089405040002845, 0.18040392141841188, 1.3255106918654809, 4.030024225793724, -2.0555931408724746, 0.7361197301754849, 0.8097540051897525, 0.1378027455702897, 0.8533394743015528, 2.634092107877997, -1.062405466240735, -0.4453397858048582, 1.3894357240675514, 0.4372009154295462, -0.529051948268247, 0.1920029040527993, -1.9725082866470451, -0.23094280183680382, 4980.992306184638, 101923.33571141181, -197.6452019343069, -13545.24735191981, 1238.9849980082581, -5377.421259668434, 1118.5229237565654, -115.4535581458349, -3020.2888114767456, 3936.7227710928983, 1240.0630344463252, 922.6578867575281, -417.03749214475556, -64.49479322135187, 1022.1684157100484, -35.615346853998744, 925.0726753297962, 659.745580512219, 226.7146780145276, -540.698465356211, 48.236850210959346, 295.41342301144573, -432.3623437441255, 190.2622976300753, 202.26207973028318, -15.459033731477462, -133.16114406469518, -199.72631097782352, -177.34067012126854, 19.492132531453194, -168.18664356572813, 84.87702651330773, 43.75145604816885, -6.246789896450991, 203.1093762331552, -90.52864240326957, 104.0084213876388, 4.310216805640152, 93.22531800999508, -80.28423260465365, 70.37175186844601, -0.24630462809568598, 34.32672579988332, -25.1184541624813, -97.38008162498902, 75.80020430868632, -49.82301620522111, -33.42402446845176, -1.7992245787737602, 34.72689936800822, -1.5687634610431047, -26.065933311817105, 53.702804744797646, 1.9825493892427346, -14.063840574889923, -16.01588816007137, -10.432745460824947, 0.43720599159297535, 11.602651879358007, -5.802767481939384, 5.105853292651574, -9.205609106741093, -13.030536869854473, -19.1898301036924, 0.4611991055402598, 17.78618600943485, 16.510666129735746, 3.579584065871085, 13.046539036809973, -11.106656305145549, 0.5221971704232473, -3.914885154733751, -5.311360063111394, 7.156738883500445, 5.1479321988917555, -2.213910232777039, -0.15684253530395154, -6.049352037523107, -4.685784601714261, -5.312815437774503, 1.506473198654028, 11.068396543138945, 1.6319317902149884, -2.6758416322824274, 4.1806447662348205, -5.2037113487871665, -5.291268579729866, 5.917055070908432, -6.52185645446961, -2.8550071752136716, 2.2891063206022153, -5.261467316014276, 4.464379919638915, 0.4131016499710398, 3.508377933989294, -0.7339189467300571, -0.37451076692761376, -0.7840840351454545, -2.194389447000333, 6.41183889269675, -2.4457336662742435, 1.8480964693438509, 4.135644425942138, 0.14094146364928228, -5.006028580112343e-06, 0.20471612802261063, -0.22544940555335202, -2.393827572194237, -1.9469403162203847, -1.0550116680375652, -0.9195417090695166, 2.9286741245018604, -0.36653961514912226, -3.8207113978545735, 2.5136492806671367, 0.8338052227480262, 0.9864810417441419, 0.18920410589711167, 0.23074645110563807, -0.8936818053066489, -3.151974202455329, 2.092057039181105, 1.4828765742181176, 0.12354426683239339, -0.8652043400760903, -1.9764497543424753, 0.06620756641459025, 2.0186753691442973]",-5.09,-3.48,-5.32,-3.95,1.0,CB,DIO,100.0,PEDOT:PSS,PFN-Br,8.4,8.42,0.82,17.7,58.0
"[-105619.42381595823, -88400.55695973977, 7385.146802258578, -809.8989766820614, -5890.435069994818, -791.6361388412288, 763.740951648402, 862.1107091526706, -1642.1231713927075, -675.5968979974255, -251.82482189016446, 28.139471075712436, -448.4600363375965, -774.6502360980644, -730.551590590638, -560.2728271701989, 273.39195039861033, 157.0522406417931, 90.28309247008927, 92.87014800726388, -72.78442595321725, -166.83493519433324, 10.770232331131979, 55.319796215307804, -228.7644325288716, -179.6356322219092, 115.76943070096416, -61.67380742635285, -63.97777270556338, 17.771287067556628, 164.74855196522208, 10.63232670053209, 20.47357644169216, -58.655438664124624, 41.0979234704821, 23.460894896266154, -16.607712459319302, 39.18841720862707, -19.091173505228355, 23.45865853468399, -28.03423163810129, -37.49946634861752, -12.717438336225285, 65.2768120852175, 2.791315723157311, -48.9638537987982, -8.250630812385978, -52.87577711201088, 26.44295242066073, 35.52702496345296, -8.921122373055184, 11.731943340983435, 11.723085491202731, -12.384781049024767, -25.83172994802333, -3.5000916714916457, 14.547205033323227, 3.8713800025102003, -11.25935126735044, 6.883524337768279, 14.201457204979842, -9.316506740104316, 4.547470553030848, -15.518615933917943, -3.0725750288037617, 3.2025424613303457, 8.884153043746437, -10.342982437235293, -11.776085917459127, -1.8893224730975469, 0.8478265792149102, 0.0970256253916304, -0.2929088523788441, 3.406179571096146, 0.3354179050937489, 7.637587674331435, -9.069527822199973, 0.23326980130945607, -3.8629593020018422, -4.045739714506865, -0.565949746375864, -5.110568040174233, -7.19244277100907, -5.258475061311202, -12.983347573311818, 6.704982550438373, -5.34859451024855, 13.434128251727529, 7.627289517287753, -0.41678949295532064, -5.57450891581567, -6.458714470264752, -5.807247657561547, 6.787824045129975, -6.482055742538407, -0.4710014084217491, 0.5303796404137742, -1.853595763774237, -6.316138641076712, -1.7561972303870106, 1.1223492401009239, 2.405739941232209, 4.788122328210552, 1.1703503615511828, -2.102299570573452, 2.3698556370438766, 1.0554582467148812, 1.64666544708661, 2.987998292651599, -2.011136094869407, 0.28747516103835125, 0.25509465930047703, -2.1188948836837973, -2.5280211739434257, 1.3490832526991312, 4.873146489392502, -0.8166156864723995, -3.2462916177049843, 3.265475195781299, 1.398672438099096, -0.07800516761075116, -0.07330487199566704, 0.5300934500057242, 1.2858843246756528, -0.5048472920140057, 1.0580253090988023, 1.6070593731674983, -0.6836304432109372, 4980.992306184638, 101923.33571141181, -197.6452019343069, -13545.24735191981, 1238.9849980082581, -5377.421259668434, 1118.5229237565654, -115.4535581458349, -3020.2888114767456, 3936.7227710928983, 1240.0630344463252, 922.6578867575281, -417.03749214475556, -64.49479322135187, 1022.1684157100484, -35.615346853998744, 925.0726753297962, 659.745580512219, 226.7146780145276, -540.698465356211, 48.236850210959346, 295.41342301144573, -432.3623437441255, 190.2622976300753, 202.26207973028318, -15.459033731477462, -133.16114406469518, -199.72631097782352, -177.34067012126854, 19.492132531453194, -168.18664356572813, 84.87702651330773, 43.75145604816885, -6.246789896450991, 203.1093762331552, -90.52864240326957, 104.0084213876388, 4.310216805640152, 93.22531800999508, -80.28423260465365, 70.37175186844601, -0.24630462809568598, 34.32672579988332, -25.1184541624813, -97.38008162498902, 75.80020430868632, -49.82301620522111, -33.42402446845176, -1.7992245787737602, 34.72689936800822, -1.5687634610431047, -26.065933311817105, 53.702804744797646, 1.9825493892427346, -14.063840574889923, -16.01588816007137, -10.432745460824947, 0.43720599159297535, 11.602651879358007, -5.802767481939384, 5.105853292651574, -9.205609106741093, -13.030536869854473, -19.1898301036924, 0.4611991055402598, 17.78618600943485, 16.510666129735746, 3.579584065871085, 13.046539036809973, -11.106656305145549, 0.5221971704232473, -3.914885154733751, -5.311360063111394, 7.156738883500445, 5.1479321988917555, -2.213910232777039, -0.15684253530395154, -6.049352037523107, -4.685784601714261, -5.312815437774503, 1.506473198654028, 11.068396543138945, 1.6319317902149884, -2.6758416322824274, 4.1806447662348205, -5.2037113487871665, -5.291268579729866, 5.917055070908432, -6.52185645446961, -2.8550071752136716, 2.2891063206022153, -5.261467316014276, 4.464379919638915, 0.4131016499710398, 3.508377933989294, -0.7339189467300571, -0.37451076692761376, -0.7840840351454545, -2.194389447000333, 6.41183889269675, -2.4457336662742435, 1.8480964693438509, 4.135644425942138, 0.14094146364928228, -5.006028580112343e-06, 0.20471612802261063, -0.22544940555335202, -2.393827572194237, -1.9469403162203847, -1.0550116680375652, -0.9195417090695166, 2.9286741245018604, -0.36653961514912226, -3.8207113978545735, 2.5136492806671367, 0.8338052227480262, 0.9864810417441419, 0.18920410589711167, 0.23074645110563807, -0.8936818053066489, -3.151974202455329, 2.092057039181105, 1.4828765742181176, 0.12354426683239339, -0.8652043400760903, -1.9764497543424753, 0.06620756641459025, 2.0186753691442973]",-5.19,-3.11,-5.32,-3.95,1.0,CB,DIO,100.0,PEDOT:PSS,PFN-Br,9.5,9.44,0.86,17.9,61.3