DA_mordred_pca,HOMO_D_eV,LUMO_D_eV,HOMO_A_eV,LUMO_A_eV,D_A_ratio_m_m,solvent,solvent_additive,annealing_temperature,hole_contact_layer,electron_contact_layer,PCE_percent,calc_PCE_percent,Voc_V,Jsc_mA_cm_pow_neg2,FF_percent
"[-12502.237238318756, 12940.486498522763, -1066.3121270637937, 2848.3657196262375, -4573.239705105898, 5705.765511855962, -1213.628882713593, -1997.047000181447, -1346.4137113710344, 249.45823124922106, 3659.4607792622965, -1836.740312387303, -2151.5833760099263, 948.626652319315, -1472.274963247222, 702.8651524626674, 64.55367226653686, 642.8189696026466, -666.9681202616001, 48.80761045633554, -207.32589571593536, -385.5082593439513, 302.0120545901889, -385.30095760526495, -356.9928263667933, 243.32881504575636, 243.63771963462332, 95.14520593363116, -393.65339760228994, 152.59105669677922, 87.78951252343957, 256.7748300246422, 209.56585887476902, 184.80676138703103, 170.3638279397867, 187.83323074049417, 161.252796391699, -138.30047213959386, -248.20894102246277, 113.67225918368979, 112.73796987709298, 12.385437331792332, 156.8960992307311, -111.95489825494658, 163.20013792308725, -73.96591420441541, 30.078943149240263, 29.09576872968077, -11.793542400168942, 38.897586746250845, 113.13625454488398, 101.39781515347258, 30.649155483368247, 23.577060904657124, -36.77513906368854, -72.52979438544104, -81.26459203694138, 41.12086343923093, -49.43802383657132, -27.20793844981076, -19.667074313295902, 44.68999609998795, 25.57517791734788, 38.187431745616706, -15.798321623046556, 39.25846001423673, -11.163395642958974, -20.17226665124091, 24.583404118866945, 36.76283446961001, -18.097658465164784, 15.24342465061768, -12.868728727701246, 19.781120933197215, 14.325302703187567, 4.635377399164522, -22.532901774922824, 17.454237667672714, -4.209954510764734, 4.681209922495416, 30.523655540725642, -5.350214232785809, 7.560168394980931, 15.169435608297068, 1.0668190648646387, -3.261498176246395, -3.2645623462455453, -12.867377893071335, 18.944974929755233, 7.023732332750357, 7.667815734554633, 3.169383972954078, -2.224776960208085, -1.8117007543153467, 5.383896672304803, -3.8975155273899507, 0.40561867853846145, 2.6124934959638964, 3.4561620504625523, -0.677367369101439, -5.083094822259966, 0.22912531284895898, 1.373027012052276, 0.24701645557682816, -0.6525546666704527, -0.8777987705149695, -2.756689729458971, 0.5455019517613149, 2.0137275992544543, 2.383867151859592, -0.12106155347844805, -1.2197566173080927, -0.174250280121516, -0.8729984879976467, 0.07341293498170032, -0.19829075675291108, 0.6309509086837553, -0.48597786584684033, 0.7549907018766131, 0.8893260424372592, -0.5591050201818497, 1.0060606469217692, -0.5389955124771912, 0.4746842567751699, -0.7907584489727668, -0.354498863981636, 0.20810038197498038, -0.6992844258098909, -39240.57973318528, 20500.70181160768, -742.7372891537739, 23239.986168659925, -1647.5053877763694, -1482.2879929554504, -6600.964661204996, 546.251203042571, -637.1841402380221, -1310.7812883587976, 3386.685079883572, 1427.9643059346781, -674.1201629752072, -1243.5852171420077, -816.2548454178329, 291.2043899971375, 287.9526615159073, -1154.2737005585755, -375.97659435008075, 35.18982560844995, -517.3588424672718, -281.3314781065094, 379.43550474139863, -655.8684483312554, 77.3163868857684, 31.441016053252326, 152.82345306039068, -227.42020407311205, 211.77085253675156, 230.23656343019672, 49.030211448542836, -171.11107740328458, -20.433426773430142, 210.55990352170073, -12.807480532862229, -22.93984600593121, 39.33791194475964, 2.1576417673450123, 63.32365166602841, -90.83696860940627, 112.29918494598897, 27.75557737246524, -75.16547282769282, -27.491732512033913, -36.669753046768164, 37.54841621139991, -37.91964189385969, 16.455332480637736, 15.688236181382791, -14.061540930709388, -4.1875202397122155, 26.012441986223543, 15.471901190516064, 16.880797607156808, -0.1697433152896224, -12.999865635973244, 30.127025242178362, -2.6730881608369828, 11.87733929539489, -11.882349106357509, -10.579334589713584, -5.009180789475746, -0.12125708729404039, -10.06799072017468, -7.708771478670442, -1.3579479139590624, 1.600211600058234, 0.9315817087016853, 7.92882408138706, 10.478484008662893, -5.556939493567031, -4.816810680988548, 0.7704379529638956, -1.3305876016983085, 3.011655355842536, -5.27229311307282, -2.8528541862897363, -0.4297894488262264, 0.5101130029746237, -3.4444092399498594, -2.0524762321975465, -1.4237299686960991, -4.538966235950822, 1.5545320542809478, 0.5156248968527706, -0.34327771638680815, -2.6540235596619155, -1.5179146335051037, -5.022119686868136, -0.3196196564359175, -3.4371138619644093, -1.0631351140103966, -0.13371239944401836, -2.5862962782580503, 2.229215623816513, 1.5320306194811915, -2.079984091724034, -0.36729773024961965, 0.4466187282066769, -2.7360369166024867, -0.705377415767428, 1.6158572321493354, -0.0700267283282986, -0.8949435680587224, 0.45140351343523655, 0.7048737120320752, 1.072065362578663, -0.2479777070139102, 0.03994688446205075, -0.9552189223492409, 0.5796904401723353, 0.23128578974454506, -0.1833634052416393, -0.19967364138103427, 0.1469681666517184, -0.41026326371600597, 0.031261319947089916, -0.1632368826522086, -0.013832586558201854, 0.1215994183610043, 0.7937531569094052, 0.03517915608394728, 0.34526686929627104, 0.02732240915219908, 0.17256062077923673, 0.05345929406843819, 0.28149715588719815, -0.17873941970506912]",-5.5,-3.02,-5.526666666666667,-3.8515384615384622,0.667,CF,_,150.0,PEDOT:PSS,PDINO,11.63,11.63,0.984,18.03,65.54
"[-52644.586375796825, 1508.7938457444232, -8218.444908286936, -147.93357584821877, -3297.385279698933, 1133.1994506113601, -3128.6022239950075, 3256.4122206137563, 380.70634214431186, -2174.677192101606, 1179.1120123169803, -688.7485436936429, 149.06914875976767, 256.2123753030267, -166.2280725131165, 311.503417880967, 99.14521393884048, 584.2538175370889, -17.798512893701854, -241.9383402740664, -210.14704959660892, -67.50742790172572, -98.82485102826406, 6.893471297497804, 107.77328034276736, 184.58165339091323, 24.019170314350873, -75.4370222815692, -105.53149261519627, -64.88293159970667, 61.69785755927921, 2.91662502455646, -92.81492327376463, 21.524930923001012, -31.14599098750277, 27.200737015957763, -24.333395895578935, -60.7411039881419, 1.3433020510434852, 3.4518887273290133, -2.4759006635237055, -26.905980236845885, -23.22540227074537, -59.242616594636274, 5.965078239384976, 31.989932745250023, -2.159425942929688, 9.506683914858217, -1.6214378334953503, 17.968003256598454, 10.945013693460092, -0.10453798607660802, -4.836332026267791, 11.816546611886448, -19.48644376128272, -24.498968212698223, 6.107590716142369, -0.17111739164892903, -1.1225118459270753, 3.1873544414043398, -0.8773260158053879, -5.601290809343239, -11.335177940761271, 11.494763432743731, 9.261874695469865, -8.626550974224688, 7.299365489587837, -6.264262507557671, -2.309401649758043, -0.904583198003911, -2.9516080900238233, -6.538794132552438, -3.3837971216836737, -7.848692232597178, 1.3881364886206264, -1.592051416663355, 1.8027768272715772, -0.48469328142037016, 4.722012435662794, 2.4069462670909036, -1.6219763319245768, 3.529936839038566, 3.369327537393905, -0.18118066154021495, -1.266360432795211, -0.11124859666349884, -2.7558009268170114, 1.9518910718392792, -0.5716785813631521, -1.9410292740293336, 2.3235829064589018, 0.8193347739408254, 0.8576126245480888, 1.0756514443469618, -1.5539368368482065, 2.2760640042946982, 0.2787248134109914, -0.847848411691837, -1.6038898599981466, -0.5492889800744116, -0.011763147820762793, -0.8653161738336816, -0.9373304168840342, 0.31617313073679565, -0.7812309401927481, 1.0484679090363471, 0.30956823065395955, 0.5482522609692806, 0.5693954633363942, 0.6616433956841585, -0.4481352025028045, -0.5607368852149119, -0.21328411694615879, -0.4980718092166681, -0.22594122019284235, -0.2593870293740439, 0.33607442863626824, -0.12171781337866339, 0.3567814446108206, 0.10375156810594266, -0.07822956621923449, 0.302694339396655, -0.2620298718338603, -0.35187771329520245, -0.03270037738410014, -0.29588996311665916, -0.13046612935669355, -0.2773991155375439, -39240.57973318528, 20500.70181160768, -742.7372891537739, 23239.986168659925, -1647.5053877763694, -1482.2879929554504, -6600.964661204996, 546.251203042571, -637.1841402380221, -1310.7812883587976, 3386.685079883572, 1427.9643059346781, -674.1201629752072, -1243.5852171420077, -816.2548454178329, 291.2043899971375, 287.9526615159073, -1154.2737005585755, -375.97659435008075, 35.18982560844995, -517.3588424672718, -281.3314781065094, 379.43550474139863, -655.8684483312554, 77.3163868857684, 31.441016053252326, 152.82345306039068, -227.42020407311205, 211.77085253675156, 230.23656343019672, 49.030211448542836, -171.11107740328458, -20.433426773430142, 210.55990352170073, -12.807480532862229, -22.93984600593121, 39.33791194475964, 2.1576417673450123, 63.32365166602841, -90.83696860940627, 112.29918494598897, 27.75557737246524, -75.16547282769282, -27.491732512033913, -36.669753046768164, 37.54841621139991, -37.91964189385969, 16.455332480637736, 15.688236181382791, -14.061540930709388, -4.1875202397122155, 26.012441986223543, 15.471901190516064, 16.880797607156808, -0.1697433152896224, -12.999865635973244, 30.127025242178362, -2.6730881608369828, 11.87733929539489, -11.882349106357509, -10.579334589713584, -5.009180789475746, -0.12125708729404039, -10.06799072017468, -7.708771478670442, -1.3579479139590624, 1.600211600058234, 0.9315817087016853, 7.92882408138706, 10.478484008662893, -5.556939493567031, -4.816810680988548, 0.7704379529638956, -1.3305876016983085, 3.011655355842536, -5.27229311307282, -2.8528541862897363, -0.4297894488262264, 0.5101130029746237, -3.4444092399498594, -2.0524762321975465, -1.4237299686960991, -4.538966235950822, 1.5545320542809478, 0.5156248968527706, -0.34327771638680815, -2.6540235596619155, -1.5179146335051037, -5.022119686868136, -0.3196196564359175, -3.4371138619644093, -1.0631351140103966, -0.13371239944401836, -2.5862962782580503, 2.229215623816513, 1.5320306194811915, -2.079984091724034, -0.36729773024961965, 0.4466187282066769, -2.7360369166024867, -0.705377415767428, 1.6158572321493354, -0.0700267283282986, -0.8949435680587224, 0.45140351343523655, 0.7048737120320752, 1.072065362578663, -0.2479777070139102, 0.03994688446205075, -0.9552189223492409, 0.5796904401723353, 0.23128578974454506, -0.1833634052416393, -0.19967364138103427, 0.1469681666517184, -0.41026326371600597, 0.031261319947089916, -0.1632368826522086, -0.013832586558201854, 0.1215994183610043, 0.7937531569094052, 0.03517915608394728, 0.34526686929627104, 0.02732240915219908, 0.17256062077923673, 0.05345929406843819, 0.28149715588719815, -0.17873941970506912]",-5.218571428571429,-3.341428571428572,-5.526666666666667,-3.8515384615384622,0.667,CF,_,150.0,PEDOT:PSS,PDINO,5.98,5.98,0.701,17.16,49.73
"[-40379.550777858196, 56004.069127593044, -10651.726564434246, -16787.81031422943, -4899.992121591016, -824.7283886742232, 3213.3355032253107, -1470.288885595245, 254.4377968009814, -1413.1146630484025, -524.4083602292874, -562.997720813155, -39.53950048797216, -237.61809197268883, 180.52903723581315, -190.73776488072147, -330.80306712396464, 99.72719854979664, -38.288725474699014, -15.193302786029136, -8.532246059522224, 145.04616544768794, 14.962058909511939, 123.04398183642466, 62.852427505583, -16.118058857090944, -46.56859833906233, -0.5575523560657274, -6.36498680353148, 16.394816676055783, 87.85016416866046, 16.04209532118321, 6.728058072640266, 31.819933043206213, 7.247524520540111, -16.595924642037062, 22.429503825143726, -34.30752403737112, -22.117717401179593, -42.53762441373334, 28.137558748772225, 2.22131123168802, 10.678808593591533, -14.694404223731631, 5.672198985063375, -1.6746084012166627, 3.5448396296069937, 4.439322415982939, 2.361717827741181, -7.79091708674293, -7.799464018746011, -0.06700113902227045, 6.275440131612939, 1.6816512012129223, 7.516755854741788, -1.3196602414838896, -1.599423863335157, 0.8523744266797966, 6.5919953227931884, -1.9930726417356155, 2.4730446865395805, -4.86740547502367, -1.6841737660247347, 1.6586533064853555, -0.8074568835944604, -3.2367193878033773, -2.1849438483133383, 0.21206456314353517, 3.0809245279681186, -0.19938566599949326, -1.7618285128175284, -0.05980224728117811, 2.9080797958751314, -0.2649007688640488, -1.4904110395030248, 0.9599817863349642, -2.062231625754352, 0.18250954513997886, 1.0587154103407115, -1.8898659848741381, 0.0828903647949275, 1.32594414559665, 0.358456040618492, -0.08392299601673514, -0.7357168466038431, 0.5569749078821111, 0.46639264895316324, 0.8106144831234943, 0.0036309183357334796, 1.615344045763857, -0.8126052081822834, 0.008561986029853585, -0.4374767812936806, -0.3645528964956295, 0.3530253133670438, 0.01993774228438383, 0.21970565142439824, 0.05638899422120147, 0.33798152978198814, 0.10894087739224645, -0.2310380143835129, 0.5971144474169652, -0.0568340402989147, -0.14432609544563313, 0.09196812189175685, -0.12801448064831078, 0.08893783919220155, 0.08315346312763339, 0.2048785099106445, -0.21622713001348914, 0.12256202799790294, 0.10820379300091787, 0.1865751938394018, -0.1645796925672459, 0.09908524542788655, -0.09534185566811182, 0.05572017504187965, 0.08364897859544218, 0.04476089133255723, -0.03247571883968092, 0.01741547505732921, -0.03798876088742631, -0.039233448534753634, -0.00874733060879862, 0.018554743515469596, 0.022867216035734828, 0.052540313824602336, -0.04783066929916302, -40141.28622980386, 22198.364724375428, -2478.146774428885, 24942.22643106505, 1682.7190538350328, -671.9950103088106, -5293.262409804413, 772.1081558521887, 752.6412485976263, 25.721379823563694, 4520.600741544252, 1268.126975254695, -1412.8803176795873, -764.1474923449753, 1258.3385725916187, 1469.7042372777487, -120.64365497867553, -791.8060945835012, -114.39567208902628, -239.24412272548182, -284.5762301636467, -858.9754090462698, 805.0586575747594, 309.98748022055497, -229.3628670257453, -2.619310315170111, 278.8296838524342, -586.239863210692, -110.15797376559783, -86.43055239718255, 460.42088505675196, -209.23790915720434, 438.4379102736266, 433.65010648227457, 68.83920123543803, 41.82732783201819, 75.96213090604824, -178.83260468962584, 62.8857235572451, -135.5767996060909, 43.80496537092181, -24.580980790874605, -106.29464844798989, -141.88921712272352, -127.30141974733934, -14.41270928697718, 20.174306486554453, 6.459844271516701, 45.589378842856846, -29.60434882050526, 21.749319778374435, 27.940431542838475, -53.24013506517369, 3.2032881457320954, 21.198920702845527, 1.0139647146013573, -18.235101062755405, 24.447166344849514, -15.24438762500418, -8.520845633786848, 16.219623336338394, -10.077890630767708, 16.985701023044435, 20.99303519903128, 3.4693140431524654, -2.8172988400893697, 18.453271735096614, -11.421305369376189, -3.2742126126130273, -26.868607183326326, 22.63083447356177, -11.286017472009917, -7.282449082396312, -10.691852412665295, 4.267559856534298, 1.9165099650587507, 5.347135061616833, -8.20801666584648, 3.597067172866012, 12.468485158814865, -9.689035117948848, 0.2615495472594809, -1.362041770243733, -1.1553142198435253, 3.45164539734283, 0.2857898581169511, 2.536801089837226, -0.10478528895328054, -1.6358468042017016, -2.9020618829165876, 1.0245225519934387, -5.148959261497112, 3.969974185621105, 0.051307117460204665, -0.26102330372994587, -3.5617206281042098, -0.766659169499663, -3.255009906916665, -1.6698794035973874, 0.4569242965676601, 3.624839707143753, 3.8730115052499574, 0.28497169965529245, -3.8836363690390012, 3.0197757423208937, -1.5874150638708286, 1.0521756139100136, 0.24363231901443616, -1.9657801893483047, 0.8460207052388728, 1.2856672572952057, 2.113221552979269, 1.5602443126933032, 4.045362527606075, -1.0552615093568027, -2.450199592473542, -1.092065692221139, 1.0864669926224493, 1.2702852934756699, 0.5963336965646822, -0.9460645848965283, -0.18107705506738686, 0.8451479299024669, 3.0449397982199202, 1.7846189031035737, -0.8606481936127146, -2.6514758458917527, 1.165430079412939]",-5.353333333333333,-3.4318181818181825,-5.54,-3.9,1.0,CF,_,150.0,PEDOT:PSS,PDINO,11.73,11.73,0.919,18.45,69.2