DA_mordred_pca,HOMO_D_eV,LUMO_D_eV,HOMO_A_eV,LUMO_A_eV,D_A_ratio_m_m,solvent,solvent_additive,annealing_temperature,hole_contact_layer,electron_contact_layer,PCE_percent,calc_PCE_percent,Voc_V,Jsc_mA_cm_pow_neg2,FF_percent
"[-91850.1013944251, -31.94532944595926, -13640.129141491467, 5099.048943614727, 7326.240889669503, 7684.43407108446, 1997.5494770357122, -703.3152267823559, -259.7450865929389, 436.92345434869816, 490.3794333956324, 774.5753002521705, -2022.4679685424287, -1987.4701536078055, 108.76625203341355, 104.60182730990317, -80.8059801199831, 518.8170348412508, 513.1853716948877, 15.26626321363915, 43.50341270921257, 48.27983655028392, -100.29142569674494, 104.9057912250179, 170.11567291119, -24.50881973822078, -109.0522832507805, -274.67003359230495, -26.845011636912957, -64.75688205459811, -109.96502227843183, 117.72488586437522, -74.05234933802795, -19.742306629134646, 8.210886499264518, 58.15026930634001, -2.0910308578646912, 1.6565080023191499, -42.627578711504825, -14.392497199742639, -40.03801206359397, -2.7404110728584747, 5.1152424033258015, 10.93175834662733, 7.17062172142435, -7.336682401094352, 12.335195137325176, 1.743859757755739, -11.045090774637238, -10.383896287752744, -5.08769084339689, -1.678110450983886, 2.874319989313248, 8.705711012017357, 3.459574045624098, 2.1486389571342643, 9.187302519778862, -2.839489944206351, -2.925919531500101, -0.7335914346383561, 2.651432306082293, -5.925503426319116, 3.6301310383623395, -2.688416150576783, -0.39163237962848996, 1.5394059466154877, 2.074358943660581, 2.5781307902480597, -1.110172042208525, 2.0531010681186173, -2.0110712717998815, -0.0013305089881772147, -1.8456419639238901, 1.054484185975348, -1.7743173691334029, 0.3866410347867113, 0.030670132991629018, -0.9639888106917067, -0.8888866294011472, -2.742182332770623, 0.10855259722772992, -0.018251501121850477, 0.7404327978632788, 0.6317846317399689, -0.9425030761764255, 0.20914888242955687, 0.027004723583202883, -0.18326034248701006, -0.007922551392209709, 0.29072379791069425, 0.023583823241565938, 0.14167009797399643, 0.09081391715623832, 0.26569816221827436, -0.19113427062095623, -0.15117296545027425, 0.4906741400137331, -0.11675473747599963, 0.15657728436579532, 0.023369801669616663, 0.22976643765362015, -0.13851454714771427, 0.452387254805809, 0.39827537908958455, -0.08806860875073019, -0.20101392348631597, -0.11813223291226427, 0.3178059037360166, 0.2183440404572612, -0.21518659747810887, 0.05295137879517142, 0.24798228239579956, 0.10020542758738127, 0.28166189335245306, -0.18857723602523713, 0.0641165806306252, -0.24958460306900254, -0.06013028960270761, -0.10211807341153367, 0.10979007872791535, -0.06399760348199623, 0.08022730449348625, -0.16750723788688926, -0.05023146720217753, 0.04339181601633779, -0.03946373517263346, -0.04765661365284746, 0.015093753317343833, -45265.95657111671, -15017.244751795362, -30774.11132431718, 17909.746421306078, 15296.01371408034, 2534.4180033625694, 1000.0360835077686, 7127.953614550167, 1676.2322542854126, -897.0788339601497, -175.05904206381126, -721.0606409529162, -2508.898599586208, -305.73909653977967, 580.8501793934703, -2816.141125627992, -1549.1027887789828, 400.46105195515537, 140.79247723021086, -497.4222086482524, 60.09941553451051, 245.20655866617798, -57.210696005175635, 40.23682228095508, 472.6547499179847, -461.7182955697257, 34.71264896754306, -211.56807437306043, 459.1001774904556, -91.80045761565552, 236.94419235207766, 234.1397070423675, 89.40009013654864, 61.45802125194945, 230.325883023943, -75.078178389244, -119.63080351846484, -49.711111713366066, -278.17752929385085, -6.241096782772509, 26.57502947198432, 4.442406213938263, 47.38279695618733, 58.903312418342736, 13.19921917570195, -22.230439962850483, 54.32740383983025, 30.761320993449644, 39.07506511120592, 23.364014523158644, -21.769307633955805, 44.045611899840985, -11.23844997483031, 37.781045867815514, 25.55437449686356, -15.58297550277085, -8.788087432204641, -49.17856930954784, -27.774923291361624, -0.35685730220891543, 22.504906396303028, 1.6625015342363634, 3.937246704124142, -11.910265054628342, 2.635839811685802, -21.75934532331943, 1.392771293494138, 8.920242465074647, -26.650269142591455, 6.088743967056557, 3.790437396228725, 1.064092227048894, -10.803553968910602, -8.04925717739648, 12.946615705484268, 5.653776615519316, -0.746042418348158, -10.484416131086011, 4.456312039679837, -4.1965301516440086, 13.535155802198783, 16.760494039850006, -6.95472004497463, -10.53903248592032, -3.376919116724384, -7.051872298247632, -3.633622332353152, -5.550468109353414, -3.1135905505310815, 0.8364157414071745, -2.2218679503022045, 0.7767372538351864, 4.889116430307631, 8.247718165864331, 1.9875344761954494, 5.558351944556186, 4.482497710834524, -1.2800510199606832, -11.641886868349829, 0.3767671977077036, 2.627371129787498, -2.1598667040678947, -2.1310935099603583, 4.89305713518619, 0.6274684255276277, -0.28111239305201785, 0.33634206336797545, 3.997219086700709, -4.6300580053937, 1.7539755787053721, -6.44809264111691, 2.120862717379854, 1.2222105931261993, -3.6811639347386755, -4.190047312746635, 4.678135708271382, 0.6284475462969397, -0.04961339674488907, 1.9898558917318923, -0.632031363043227, 1.2973524966814765, -1.7319197574169802, 2.038473673602981, -0.18643599235457742, -1.7842868747393474, 1.1612515053244863, 1.5587890208399067, -0.8437523999030043]",-5.43,-3.3200000000000003,-5.75,-4.07,0.667,CF,DIO,25.0,MoOx,ZnO,9.06,9.05,0.751,17.19,70.07
"[-40379.550777858196, 56004.069127593044, -10651.726564434246, -16787.81031422943, -4899.992121591016, -824.7283886742232, 3213.3355032253107, -1470.288885595245, 254.4377968009814, -1413.1146630484025, -524.4083602292874, -562.997720813155, -39.53950048797216, -237.61809197268883, 180.52903723581315, -190.73776488072147, -330.80306712396464, 99.72719854979664, -38.288725474699014, -15.193302786029136, -8.532246059522224, 145.04616544768794, 14.962058909511939, 123.04398183642466, 62.852427505583, -16.118058857090944, -46.56859833906233, -0.5575523560657274, -6.36498680353148, 16.394816676055783, 87.85016416866046, 16.04209532118321, 6.728058072640266, 31.819933043206213, 7.247524520540111, -16.595924642037062, 22.429503825143726, -34.30752403737112, -22.117717401179593, -42.53762441373334, 28.137558748772225, 2.22131123168802, 10.678808593591533, -14.694404223731631, 5.672198985063375, -1.6746084012166627, 3.5448396296069937, 4.439322415982939, 2.361717827741181, -7.79091708674293, -7.799464018746011, -0.06700113902227045, 6.275440131612939, 1.6816512012129223, 7.516755854741788, -1.3196602414838896, -1.599423863335157, 0.8523744266797966, 6.5919953227931884, -1.9930726417356155, 2.4730446865395805, -4.86740547502367, -1.6841737660247347, 1.6586533064853555, -0.8074568835944604, -3.2367193878033773, -2.1849438483133383, 0.21206456314353517, 3.0809245279681186, -0.19938566599949326, -1.7618285128175284, -0.05980224728117811, 2.9080797958751314, -0.2649007688640488, -1.4904110395030248, 0.9599817863349642, -2.062231625754352, 0.18250954513997886, 1.0587154103407115, -1.8898659848741381, 0.0828903647949275, 1.32594414559665, 0.358456040618492, -0.08392299601673514, -0.7357168466038431, 0.5569749078821111, 0.46639264895316324, 0.8106144831234943, 0.0036309183357334796, 1.615344045763857, -0.8126052081822834, 0.008561986029853585, -0.4374767812936806, -0.3645528964956295, 0.3530253133670438, 0.01993774228438383, 0.21970565142439824, 0.05638899422120147, 0.33798152978198814, 0.10894087739224645, -0.2310380143835129, 0.5971144474169652, -0.0568340402989147, -0.14432609544563313, 0.09196812189175685, -0.12801448064831078, 0.08893783919220155, 0.08315346312763339, 0.2048785099106445, -0.21622713001348914, 0.12256202799790294, 0.10820379300091787, 0.1865751938394018, -0.1645796925672459, 0.09908524542788655, -0.09534185566811182, 0.05572017504187965, 0.08364897859544218, 0.04476089133255723, -0.03247571883968092, 0.01741547505732921, -0.03798876088742631, -0.039233448534753634, -0.00874733060879862, 0.018554743515469596, 0.022867216035734828, 0.052540313824602336, -0.04783066929916302, 3139.565782251555, 1111.2290930847837, -15291.836386599418, -10307.245753572255, -400.09813089153386, 2070.563020090249, -4646.8974125220375, 854.7304071735888, 2668.9726757612902, -296.30929797857806, 601.1079360051549, -899.5105057443902, 1081.0365557859277, 701.190844874134, -286.2911965722952, -1055.9959890736804, 1172.463021485243, 1003.3179041570945, 547.6588173111422, -20.61570158799421, -149.73237765487556, -711.8740023540877, -205.2198799239329, 494.2062260535764, 438.76127062359933, -347.5756817932783, 584.4749983712268, 82.69253873837137, 499.58954948887373, -171.63484333544238, 21.77070646822524, -49.13739644056125, 182.04153449268, 34.36614377673078, 1.3691890463670973, -227.14525882759597, 446.4444787849927, -165.88579194575453, 26.934899566745436, 71.41051848728492, 60.166510510362485, -237.5633946845453, -102.78649670580566, 98.18554945418623, 44.637285470614344, -71.39053099760872, 266.0884621911948, -14.345992211039231, 97.65687308984987, -52.95949626966745, 120.16660621218449, 84.45684585711082, 3.1805330610500278, 3.5582612133973015, 67.85168122272023, 44.897334835406596, -34.44505280148463, -23.579346062382584, 41.219418581284884, -13.245180144369115, -44.494045612256244, -19.839028735099532, 20.201041612386412, -7.994130256080979, -47.74507210844006, -0.4269845510227981, 11.550553641593071, -7.864763053247614, -34.921575669998205, -21.679027595780763, 11.266797748257279, -13.905744167907512, 33.2485240238524, -2.3131584062252575, 3.940978797640324, 32.34005829416092, 3.430893853283129, -11.57810149299599, -9.361971996919827, 17.747714250509105, 2.8224875968810395, 29.425141006233865, -1.1179653243090524, 9.652426197416517, -21.211587602888265, 6.677600390028211, -0.6412670497162765, -14.782548970843212, 7.287478178027779, 3.940592368463589, 5.401226355352648, 8.791622786060763, 10.13567715241285, 2.964653379570507, -3.5349551582830756, -4.002553191783139, -11.04071216424704, -1.642226263518249, -8.00594689097468, 9.035388026248576, -2.985390920218226, 7.607702862341028, -8.93964262611574, 2.2900245388003384, 9.816477001582758, 6.455898445630692, -1.4747072058304678, 0.3995713711343303, 2.3284773980158504, 3.137981059547787, 10.587570915860214, 3.68265021431068, -2.2022373836200515, -4.5567501710683995, -9.271518556271749, 0.0898607367495341, 3.787144277490082, 1.9317671830694785, 0.7910350613572863, -2.344066780447889, -1.2137706402137827, 3.9333235891634413, -1.8468868802874474, 0.14628613088029496, 6.744016851008894, -2.789220758672945, -3.240397200278423, -2.8408990348930168]",-5.353333333333333,-3.4318181818181825,-5.58,-4.04,0.833,CF,CN,160.0,PEDOT:PSS,PDINO,10.54,10.54,0.81,20.6,63.18
"[-40379.550777858196, 56004.069127593044, -10651.726564434246, -16787.81031422943, -4899.992121591016, -824.7283886742232, 3213.3355032253107, -1470.288885595245, 254.4377968009814, -1413.1146630484025, -524.4083602292874, -562.997720813155, -39.53950048797216, -237.61809197268883, 180.52903723581315, -190.73776488072147, -330.80306712396464, 99.72719854979664, -38.288725474699014, -15.193302786029136, -8.532246059522224, 145.04616544768794, 14.962058909511939, 123.04398183642466, 62.852427505583, -16.118058857090944, -46.56859833906233, -0.5575523560657274, -6.36498680353148, 16.394816676055783, 87.85016416866046, 16.04209532118321, 6.728058072640266, 31.819933043206213, 7.247524520540111, -16.595924642037062, 22.429503825143726, -34.30752403737112, -22.117717401179593, -42.53762441373334, 28.137558748772225, 2.22131123168802, 10.678808593591533, -14.694404223731631, 5.672198985063375, -1.6746084012166627, 3.5448396296069937, 4.439322415982939, 2.361717827741181, -7.79091708674293, -7.799464018746011, -0.06700113902227045, 6.275440131612939, 1.6816512012129223, 7.516755854741788, -1.3196602414838896, -1.599423863335157, 0.8523744266797966, 6.5919953227931884, -1.9930726417356155, 2.4730446865395805, -4.86740547502367, -1.6841737660247347, 1.6586533064853555, -0.8074568835944604, -3.2367193878033773, -2.1849438483133383, 0.21206456314353517, 3.0809245279681186, -0.19938566599949326, -1.7618285128175284, -0.05980224728117811, 2.9080797958751314, -0.2649007688640488, -1.4904110395030248, 0.9599817863349642, -2.062231625754352, 0.18250954513997886, 1.0587154103407115, -1.8898659848741381, 0.0828903647949275, 1.32594414559665, 0.358456040618492, -0.08392299601673514, -0.7357168466038431, 0.5569749078821111, 0.46639264895316324, 0.8106144831234943, 0.0036309183357334796, 1.615344045763857, -0.8126052081822834, 0.008561986029853585, -0.4374767812936806, -0.3645528964956295, 0.3530253133670438, 0.01993774228438383, 0.21970565142439824, 0.05638899422120147, 0.33798152978198814, 0.10894087739224645, -0.2310380143835129, 0.5971144474169652, -0.0568340402989147, -0.14432609544563313, 0.09196812189175685, -0.12801448064831078, 0.08893783919220155, 0.08315346312763339, 0.2048785099106445, -0.21622713001348914, 0.12256202799790294, 0.10820379300091787, 0.1865751938394018, -0.1645796925672459, 0.09908524542788655, -0.09534185566811182, 0.05572017504187965, 0.08364897859544218, 0.04476089133255723, -0.03247571883968092, 0.01741547505732921, -0.03798876088742631, -0.039233448534753634, -0.00874733060879862, 0.018554743515469596, 0.022867216035734828, 0.052540313824602336, -0.04783066929916302, -33884.112693773684, -4325.184359052594, -14340.26905115353, 2007.251073958894, -3416.2048725689638, 1222.8013796982232, -315.8891404460362, -1209.0003422391364, -479.157471390153, -846.8417237206303, -623.4621954709284, 49.11871387883875, -52.80984495182999, 108.73480740674395, 176.87033808776283, -1014.8875048730074, -107.49151276022981, 82.05320392374176, -67.69506540365973, -246.72360824145727, 242.88467125290478, -282.64798581024866, -295.04426385405276, -259.9606678804771, 105.64064058300121, 3.7224163553194316, 50.756932727510446, 214.61038724942264, -45.85759770052486, 1.5543167638779032, -49.486312307058384, -26.107206673394472, -18.291024258009852, -50.03069245598829, -8.872424036426331, 28.672660062880027, -50.01728587052701, -37.268468960789036, 58.603415775361235, 13.279656222096957, -66.24592258025966, -38.93772240900555, -31.719181915114543, -94.58093926873183, -6.766471695179641, -3.363622896131081, -31.201453692809032, -4.95911600091976, 111.59390960085807, 29.289215649385348, -3.31853542011776, -64.1157617508615, -72.61222089521124, -52.100798063148055, 28.04630084350424, -38.28027070307531, -8.982149731281794, -33.85298643322331, 31.416567076350884, 2.9048365057967267, -49.388916130287896, -10.31052881673747, -24.075700857989148, -5.114430988863174, 26.89877491017146, -15.216585432467935, -14.285684496238849, -16.437818160152297, 9.680053573635425, -2.6837940530605273, -8.486485843671979, -1.059633710630719, 2.435106984506704, -1.0327311915276884, -4.356144572029855, 2.75231636664817, 0.15375009839298537, 5.796968252661754, -2.7233007469611534, 7.672497114267404, 8.215519435206215, -6.670095375169689, -1.3089257338124924, 5.315751880652737, -0.20631711906609418, -7.0341197808797205, 7.1430002308670435, -0.25811693944985414, 2.2574696034252972, 1.1718343520937187, -8.048370179534349, 5.953223044968458, -6.400048511224846, -3.3637161941136586, 0.6234940397763604, -2.6676819652986263, -1.680766698028041, -0.28911779624467737, 0.2552770579928264, -1.1083569224325167, -3.5156734347527214, 2.3370026364321754, -1.564871613839314, -0.954843102776151, 2.159817929850477, 2.905717891643671, 3.0581193847981702, -2.690706710589622, 1.5120610775386814, -1.292925514859295, 0.4718949395634997, 1.9729082708474146, 0.00012693829488341635, -2.2712444582919264, 2.0234400983528857, 1.9317211972038715, 0.9687122195119109, 2.4566556667747794, -1.7054196228616432, -0.6551155116260472, -0.28086548727711946, -2.895312963713458, 0.49361028584531175, -0.6887634115949808, 1.5860997323096349, -1.2741094632294683, -0.5282692616739819, -1.6386938885447742]",-5.353333333333333,-3.4318181818181825,-5.56,-4.01,0.833,CF,_,160.0,PEDOT:PSS,PDINO,9.72,9.72,0.84,19.73,58.67