DA_mordred_pca,HOMO_D_eV,LUMO_D_eV,HOMO_A_eV,LUMO_A_eV,D_A_ratio_m_m,solvent,solvent_additive,annealing_temperature,hole_contact_layer,electron_contact_layer,PCE_percent,calc_PCE_percent,Voc_V,Jsc_mA_cm_pow_neg2,FF_percent
"[-52644.586375796825, 1508.7938457444232, -8218.444908286936, -147.93357584821877, -3297.385279698933, 1133.1994506113601, -3128.6022239950075, 3256.4122206137563, 380.70634214431186, -2174.677192101606, 1179.1120123169803, -688.7485436936429, 149.06914875976767, 256.2123753030267, -166.2280725131165, 311.503417880967, 99.14521393884048, 584.2538175370889, -17.798512893701854, -241.9383402740664, -210.14704959660892, -67.50742790172572, -98.82485102826406, 6.893471297497804, 107.77328034276736, 184.58165339091323, 24.019170314350873, -75.4370222815692, -105.53149261519627, -64.88293159970667, 61.69785755927921, 2.91662502455646, -92.81492327376463, 21.524930923001012, -31.14599098750277, 27.200737015957763, -24.333395895578935, -60.7411039881419, 1.3433020510434852, 3.4518887273290133, -2.4759006635237055, -26.905980236845885, -23.22540227074537, -59.242616594636274, 5.965078239384976, 31.989932745250023, -2.159425942929688, 9.506683914858217, -1.6214378334953503, 17.968003256598454, 10.945013693460092, -0.10453798607660802, -4.836332026267791, 11.816546611886448, -19.48644376128272, -24.498968212698223, 6.107590716142369, -0.17111739164892903, -1.1225118459270753, 3.1873544414043398, -0.8773260158053879, -5.601290809343239, -11.335177940761271, 11.494763432743731, 9.261874695469865, -8.626550974224688, 7.299365489587837, -6.264262507557671, -2.309401649758043, -0.904583198003911, -2.9516080900238233, -6.538794132552438, -3.3837971216836737, -7.848692232597178, 1.3881364886206264, -1.592051416663355, 1.8027768272715772, -0.48469328142037016, 4.722012435662794, 2.4069462670909036, -1.6219763319245768, 3.529936839038566, 3.369327537393905, -0.18118066154021495, -1.266360432795211, -0.11124859666349884, -2.7558009268170114, 1.9518910718392792, -0.5716785813631521, -1.9410292740293336, 2.3235829064589018, 0.8193347739408254, 0.8576126245480888, 1.0756514443469618, -1.5539368368482065, 2.2760640042946982, 0.2787248134109914, -0.847848411691837, -1.6038898599981466, -0.5492889800744116, -0.011763147820762793, -0.8653161738336816, -0.9373304168840342, 0.31617313073679565, -0.7812309401927481, 1.0484679090363471, 0.30956823065395955, 0.5482522609692806, 0.5693954633363942, 0.6616433956841585, -0.4481352025028045, -0.5607368852149119, -0.21328411694615879, -0.4980718092166681, -0.22594122019284235, -0.2593870293740439, 0.33607442863626824, -0.12171781337866339, 0.3567814446108206, 0.10375156810594266, -0.07822956621923449, 0.302694339396655, -0.2620298718338603, -0.35187771329520245, -0.03270037738410014, -0.29588996311665916, -0.13046612935669355, -0.2773991155375439, 9161.658017245412, 115437.91863430983, -11791.443334416901, -13086.945682543526, 10624.2513338678, -1075.1613482728592, 970.5096399063077, -2520.3397080526665, -1336.9583109420744, 2642.399518495332, 71.7751793807347, 1111.443675873254, 1531.339183443837, 2267.4613529508915, 613.2110691819948, -402.107577964249, 771.2025340712596, 793.7457598068868, -350.01372195643444, -709.2106310019439, -158.0954450159229, 686.6412770373943, 497.244126124801, 44.11449063143152, 493.4883316270773, 333.8122314576599, -280.15255343327124, -749.1072883492726, -49.429795851601966, 4.383796003365092, 377.263890822425, 262.1928015166157, 35.415847231913574, 100.24200832626047, 44.636869482663855, -567.4257355283797, -91.4361040018996, 158.89618100351055, 261.15429701997573, -69.27937663220393, -60.522941350789864, 79.88209778319919, -26.867279109076264, -92.60852890911174, -13.98136448521845, 80.16436100213659, -11.373435400618888, -70.53927716871752, 46.52497473459027, -106.28970926723036, -36.31088520010499, -9.877782936816686, 18.4450218744297, 64.74076370774361, -42.212110326094376, -50.2987965849226, -13.533039076565757, -4.83248283229932, -20.70680898489752, -8.466327174332264, -38.18661459461494, 12.65280488796369, -19.50032159094286, 13.749568797320606, 4.870070666095529, -5.182422588800037, -21.56999508831406, -3.978678390795359, 12.339516064790729, -4.529991839748305, -1.7818614027271167, -5.850987855956188, -0.03740785188918494, 5.159763473444592, -13.904429655348917, -5.540739362418208, -6.30314668615965, 2.619032516562264, -10.632968111393396, -3.020175797064084, 0.7154273397342816, -2.0937664125097086, 8.462054519298114, 3.7156252850119813, 9.513270673507165, 0.4414982867728554, 3.486962895316644, -9.761856354365634, 1.5116780656774296, -3.7845237480261744, 0.2574040075755022, 3.938947649457532, -3.105809069571677, 2.2632259985184078, -0.9404197483595311, 4.747523792947618, 6.231616301790822, 2.6310943785197765, -1.060535899295589, -2.32367333326593, 0.23708729500998516, 0.8440620690124732, -1.4721086053427488, -5.298810901457843, 0.2074666099745599, -3.020828983265538, -2.4057955461978047, 0.0043794769620149054, 0.1913464943922314, 10.313887569321977, 1.0348346509994357, -3.0420256563014405, 3.5990025030031063, 1.9695362028553234, -3.3688778981547554, -4.256429692613523, 0.06773908926317063, -2.7776837365313014, -1.254842992813252, 1.3414262219451913, 1.4795724898902494, 1.2034885574890204, -3.7453639008040707, -0.05362007787098477, -1.844863268872773, 0.6750975875002432, 0.3996308692758248, -0.5798940659879079]",-5.218571428571429,-3.341428571428572,-5.56,-4.23,0.667,CB,DIO,150.0,PEDOT:PSS,PFN-Br,10.1,10.11,0.7,23.8,60.7
"[-105631.73783275932, -74572.73247403272, 4329.753734020427, -2341.4243576849567, -5555.485216633641, -172.87819728700106, -798.6979620852667, 856.8010146047068, -1780.8026309386028, 649.5717848685752, 65.62447326392157, 388.30062073400836, -353.1258883999071, -137.697950651705, 31.52142203119479, -106.39355730444561, 81.98057692092414, -63.14138686604906, 66.8688432765725, -31.850017336689234, -14.562814664564094, -114.9941249091529, 19.27422754978045, 6.86920436049806, -13.362968611123335, -88.88424698589336, -9.680549433746734, -6.256532059762719, -19.287322586292646, 30.85187752382363, -0.060728621664203786, -1.7204165771485123, 18.096287928493183, -5.394264557244732, 40.036620565000476, -33.18107886987201, 2.1644049971745574, -3.5496157331860445, 9.702406188567533, -7.574832588501394, 9.796433451870143, 2.157829321761511, -3.1218789726135014, 6.6756247366353705, -7.1588684345745435, -6.697268175137552, -1.4052090508045652, -1.9646060063565116, -5.4204105421624575, 3.32941670679557, -3.8499636318233144, -4.615352531498566, -0.07975953344401887, 3.391194367932755, -4.106358123047258, 1.501503218822819, 0.9563824343184066, -2.6973013366915453, 0.8798263076499495, -1.2664639901547048, 1.2677471291641744, 0.13775840341868673, -2.0083004655011223, 2.233635675897844, -1.9092080674585787, 1.3281780039048954, 1.7708225501106938, 0.11723884380987926, -0.7217945654510771, 0.020674104910288094, 0.6321921645490995, -0.12750860712933587, -0.7324806057772388, 0.387690081710673, 0.5704773577055064, -0.5561048571084157, 0.13303415142318897, -0.39533728660630274, -0.19314666767595423, -0.17136554860633169, -0.3105600644218782, 0.09227497024608411, 0.3640581811437116, 0.12456153887661969, -0.4900314009409783, -0.2105542507325282, -0.11287961723428896, -0.4896110545300445, -0.2576249538547408, 0.020036158749878297, 0.19004174677945684, 0.43512588848888356, -0.15984926722186188, -0.03699898168409543, -0.16184812575650298, -0.018640178199959223, -0.06970965394751483, 0.02644608400954951, 0.4184249457529603, 0.06710147780425979, -0.1455202420919477, -0.027435290436191195, 0.055771972451445606, -0.09475802435058256, 0.24207868559446766, -0.05282116924259128, -0.1882724966860181, -0.05346045629421603, -0.10831494984240475, -0.0036262226167114164, -0.026380022030597416, 0.020118181288705017, 0.03512820925391846, 0.029024371883522804, -0.050134402663047695, 0.01941571781524054, 0.00820689833365762, 0.059280726425585684, -0.07718365209846922, -0.05673269250273272, 0.03097365628437565, 0.0007247489018915587, 0.008388415516517256, 0.019782146741892603, 0.003491413958400358, 0.005668303566913835, 0.008251200563019978, 0.015433351818131769, 9161.658017245412, 115437.91863430983, -11791.443334416901, -13086.945682543526, 10624.2513338678, -1075.1613482728592, 970.5096399063077, -2520.3397080526665, -1336.9583109420744, 2642.399518495332, 71.7751793807347, 1111.443675873254, 1531.339183443837, 2267.4613529508915, 613.2110691819948, -402.107577964249, 771.2025340712596, 793.7457598068868, -350.01372195643444, -709.2106310019439, -158.0954450159229, 686.6412770373943, 497.244126124801, 44.11449063143152, 493.4883316270773, 333.8122314576599, -280.15255343327124, -749.1072883492726, -49.429795851601966, 4.383796003365092, 377.263890822425, 262.1928015166157, 35.415847231913574, 100.24200832626047, 44.636869482663855, -567.4257355283797, -91.4361040018996, 158.89618100351055, 261.15429701997573, -69.27937663220393, -60.522941350789864, 79.88209778319919, -26.867279109076264, -92.60852890911174, -13.98136448521845, 80.16436100213659, -11.373435400618888, -70.53927716871752, 46.52497473459027, -106.28970926723036, -36.31088520010499, -9.877782936816686, 18.4450218744297, 64.74076370774361, -42.212110326094376, -50.2987965849226, -13.533039076565757, -4.83248283229932, -20.70680898489752, -8.466327174332264, -38.18661459461494, 12.65280488796369, -19.50032159094286, 13.749568797320606, 4.870070666095529, -5.182422588800037, -21.56999508831406, -3.978678390795359, 12.339516064790729, -4.529991839748305, -1.7818614027271167, -5.850987855956188, -0.03740785188918494, 5.159763473444592, -13.904429655348917, -5.540739362418208, -6.30314668615965, 2.619032516562264, -10.632968111393396, -3.020175797064084, 0.7154273397342816, -2.0937664125097086, 8.462054519298114, 3.7156252850119813, 9.513270673507165, 0.4414982867728554, 3.486962895316644, -9.761856354365634, 1.5116780656774296, -3.7845237480261744, 0.2574040075755022, 3.938947649457532, -3.105809069571677, 2.2632259985184078, -0.9404197483595311, 4.747523792947618, 6.231616301790822, 2.6310943785197765, -1.060535899295589, -2.32367333326593, 0.23708729500998516, 0.8440620690124732, -1.4721086053427488, -5.298810901457843, 0.2074666099745599, -3.020828983265538, -2.4057955461978047, 0.0043794769620149054, 0.1913464943922314, 10.313887569321977, 1.0348346509994357, -3.0420256563014405, 3.5990025030031063, 1.9695362028553234, -3.3688778981547554, -4.256429692613523, 0.06773908926317063, -2.7776837365313014, -1.254842992813252, 1.3414262219451913, 1.4795724898902494, 1.2034885574890204, -3.7453639008040707, -0.05362007787098477, -1.844863268872773, 0.6750975875002432, 0.3996308692758248, -0.5798940659879079]",-5.204782608695651,-3.5391891891891896,-5.56,-4.23,0.667,CB,DIO,150.0,PEDOT:PSS,PFN-Br,10.3,10.28,0.727,22.8,62.0
"[-52644.586375796825, 1508.7938457444232, -8218.444908286936, -147.93357584821877, -3297.385279698933, 1133.1994506113601, -3128.6022239950075, 3256.4122206137563, 380.70634214431186, -2174.677192101606, 1179.1120123169803, -688.7485436936429, 149.06914875976767, 256.2123753030267, -166.2280725131165, 311.503417880967, 99.14521393884048, 584.2538175370889, -17.798512893701854, -241.9383402740664, -210.14704959660892, -67.50742790172572, -98.82485102826406, 6.893471297497804, 107.77328034276736, 184.58165339091323, 24.019170314350873, -75.4370222815692, -105.53149261519627, -64.88293159970667, 61.69785755927921, 2.91662502455646, -92.81492327376463, 21.524930923001012, -31.14599098750277, 27.200737015957763, -24.333395895578935, -60.7411039881419, 1.3433020510434852, 3.4518887273290133, -2.4759006635237055, -26.905980236845885, -23.22540227074537, -59.242616594636274, 5.965078239384976, 31.989932745250023, -2.159425942929688, 9.506683914858217, -1.6214378334953503, 17.968003256598454, 10.945013693460092, -0.10453798607660802, -4.836332026267791, 11.816546611886448, -19.48644376128272, -24.498968212698223, 6.107590716142369, -0.17111739164892903, -1.1225118459270753, 3.1873544414043398, -0.8773260158053879, -5.601290809343239, -11.335177940761271, 11.494763432743731, 9.261874695469865, -8.626550974224688, 7.299365489587837, -6.264262507557671, -2.309401649758043, -0.904583198003911, -2.9516080900238233, -6.538794132552438, -3.3837971216836737, -7.848692232597178, 1.3881364886206264, -1.592051416663355, 1.8027768272715772, -0.48469328142037016, 4.722012435662794, 2.4069462670909036, -1.6219763319245768, 3.529936839038566, 3.369327537393905, -0.18118066154021495, -1.266360432795211, -0.11124859666349884, -2.7558009268170114, 1.9518910718392792, -0.5716785813631521, -1.9410292740293336, 2.3235829064589018, 0.8193347739408254, 0.8576126245480888, 1.0756514443469618, -1.5539368368482065, 2.2760640042946982, 0.2787248134109914, -0.847848411691837, -1.6038898599981466, -0.5492889800744116, -0.011763147820762793, -0.8653161738336816, -0.9373304168840342, 0.31617313073679565, -0.7812309401927481, 1.0484679090363471, 0.30956823065395955, 0.5482522609692806, 0.5693954633363942, 0.6616433956841585, -0.4481352025028045, -0.5607368852149119, -0.21328411694615879, -0.4980718092166681, -0.22594122019284235, -0.2593870293740439, 0.33607442863626824, -0.12171781337866339, 0.3567814446108206, 0.10375156810594266, -0.07822956621923449, 0.302694339396655, -0.2620298718338603, -0.35187771329520245, -0.03270037738410014, -0.29588996311665916, -0.13046612935669355, -0.2773991155375439, 8569.462804077055, 110207.74548045057, -5580.675489894402, -16556.081670688596, 7127.260679195366, -3073.828080222762, -1533.6223502241664, -355.12453615848517, -3095.8145991120264, 3419.173147111548, -462.3992668019255, 767.4319579016992, 193.38944975465074, 765.3441796000723, 1206.3573187233806, -985.5982482136028, -68.43611425074259, 631.0814951043822, -164.5747087157133, -548.6313000921773, -17.28742329666784, -185.14272614898323, -301.7934771158025, 13.129032917435325, 426.25445611425835, -36.98503897759474, 171.80870563818803, -235.82426696359056, -104.66406861384758, -45.05415796610612, -57.035804549275085, 11.243808409245048, 226.0861750988662, 87.06034668681241, 226.13659839932183, -31.05627741881362, 137.017353871694, -22.09606218354719, -61.84479754602265, 9.281804818779563, 69.13222246695594, 14.953685829655399, 19.72953428673742, -8.50633905049753, -69.26317003286388, 68.59997387860506, 8.429564260027206, -22.0088568594102, 36.17330042090168, 10.14224063519464, 20.694946393299716, -13.765894996763393, 47.9578675896841, 20.88634039908581, -20.08033348427648, -35.83304355038709, 10.438408774002369, 16.703960158080577, -17.257272262902177, 7.24767784426956, -16.445868429185694, -6.459506216135367, -7.583209736174695, -7.424967425414934, -13.691886683439748, 13.759769935343964, -0.28962272720650617, 4.179507151822975, 5.495991536034838, -5.910085562916876, -4.495402254886741, -17.251946415263607, -7.5088084232758945, 0.2861310638409478, -1.724909330161772, -13.012981167554784, 0.7465398817959965, 0.39040114502450507, -8.510190850738638, -2.1734561670457992, 3.814313704739191, 6.301085071058026, 1.5829946098423662, -0.5739040504652735, -0.16851567357096542, -0.559070102327965, 5.953896400350025, -0.08670919671564548, -1.777658544527748, -1.2780307117751093, -7.7366740579612525, 2.941628771154086, -2.9826434804750477, -1.630390428822892, -1.299412772913584, 0.7235612346585683, 1.6978938383273743, -0.762647993478776, 3.12244956892987, -1.9199697406060068, 0.11326286898673033, 0.35268295877146727, -0.2980411399763483, -0.37567932737793974, -0.4367567129616674, 2.9578928249874394, -1.5239445261404256, 0.07515186625136394, 2.603235827947511, -2.530374109635005, -0.17294950942655873, 0.6022106900733917, 0.32141084439507495, 0.1665117656355406, 1.6368928504165652, 0.18938358119112308, -0.24353936276810373, 1.2329999761264787, -0.33273820223140405, 1.3847565668033965, -0.08146252908794249, -0.90685308494142, -0.26939685990941875, -1.7078436643569077, -0.4285370741975765, 0.45046573943715984, -1.2031998674743534, -1.3800719843157125]",-5.218571428571429,-3.341428571428572,-5.309971428571429,-3.851028571428572,0.769,CB,_,130.0,MoOx,ZnO,8.2,8.2,0.704,20.48,56.9