DA_mordred_pca,HOMO_D_eV,LUMO_D_eV,HOMO_A_eV,LUMO_A_eV,D_A_ratio_m_m,solvent,solvent_additive,annealing_temperature,hole_contact_layer,electron_contact_layer,PCE_percent,calc_PCE_percent,Voc_V,Jsc_mA_cm_pow_neg2,FF_percent
"[-96218.45766618998, 38190.55941397739, 9341.19863978244, -298.0321681723599, 3837.039845288656, -633.0815150821412, -1318.980794355729, 952.285808193773, 528.6042339012306, -265.75996339509254, 85.60403763240663, 327.51410203292335, 339.9238825739942, -217.3938336123946, 80.63195135367053, -89.32083633853233, 32.19492584684396, -21.519530699055707, -3.6266113552724115, -73.04368468656011, 86.79421267883791, 28.9157151412623, 61.36551771993493, -20.29937758864763, -20.5145225649866, 1.7418865694839667, -22.377181673057002, 12.371971410300219, 34.95291732805864, 10.187903617561325, 15.16604348820858, 8.612060636243209, -1.1743635221400766, 7.0376682218726625, -4.093627003889395, 9.922048209550361, -15.554840299560915, -5.613674452998811, -0.2972665085945745, 4.368352481075529, -3.6043195792310403, 1.354200703685919, 2.8516893216669104, -4.255469010620061, 8.299974464104451, 1.2791418187815111, 1.2654639155740988, -2.171801897186288, 0.7563528622149089, 1.6309678283868045, 0.8461705305940708, 3.200150728577338, 4.514637663770485, 2.047832060332592, 0.988495732690156, 3.0209744065138135, -1.0787642655477623, -0.5848165573459294, 0.7450505682325215, 0.7138952097940852, -0.4513392507860554, 0.44000043161623736, 0.9076636698868725, -0.7553614212014921, -1.1367214236829248, 1.4883333004282742, -0.6534390261587824, -0.2020478861539523, 0.5979438493412772, 0.35044047212350127, 0.5920200016964907, -0.4545510567545348, 1.2436977886366634, 0.06188974879205844, 0.28770923066137755, 0.34025436763747585, 0.054350949740208376, 0.15963437295462057, -0.5109982693033068, 0.3735134387368202, 0.6870145153430531, 0.38216412404326583, -0.20553217795980494, -0.08297866327442271, -0.09481622405384194, -0.0074888306561717854, 0.442508262678758, 0.06098427500299941, -0.4139541096843904, 0.14832844029545988, -0.294554145147611, 0.015892796356977712, 0.1548609075275289, -0.005654655004061704, 0.07842930267586645, -0.20841896255037717, 0.07855635365402769, 0.01820150849557578, 0.012441639298426566, -0.05940224021880214, 0.12084591158474112, 0.026787833651969892, 0.019668535058581682, 0.05537380493890609, -0.03933624965050253, 0.009307974571203914, -0.023474896973407267, 0.020049719383548492, 0.003215210697313786, -0.04194589694978035, 0.04089452902605473, 0.02749361263995076, -0.07262298298187164, 0.015379054954234306, 0.0506532373375812, 0.01506994111025417, -0.02377975685210143, 0.009711782809699865, -0.04845640783987859, 0.03322037544939782, -0.008444174408285043, -0.002255075440015908, 0.022455666638478533, -0.005795103590370054, 0.02421124183525336, 0.01760123567103644, -0.016655303062377946, 0.018813816162650987, 27462.76531499234, 177739.52691981615, 24748.433125513253, -8955.856476281911, -3141.5742240444124, -14376.284380141838, -7239.522992674352, 3535.7465613314216, 3721.625456784035, 243.64392094432333, 169.8119432331896, 1337.8904407469486, 2508.0226943046105, -1971.5860364435723, -15.032850186976702, -408.5184552886117, 2057.6401397652894, 571.2220605717475, 521.8626048888523, -713.6470015315865, 40.54703643281937, 692.1985677146438, -321.29338864128624, 428.652510585301, 455.875106038063, 912.9098183643528, 419.90049063063503, 461.73391495405644, -185.06353727453552, -95.58200867734172, 403.19535342774935, 18.892542595741816, 347.65761495518734, -23.380782704480225, 79.95559560664668, -100.96310492229415, 422.26674324874375, -97.39337283858481, 126.06866719739705, 14.53417051666554, 96.81128314825852, 83.60593921176752, -72.41108422972832, 107.63985147761548, 133.7694660818383, -178.3801600969709, -47.80197058506977, 63.61784880007497, 43.95805920365808, -161.69042947447502, 53.96945926125633, 89.8169232299166, -106.53227211492936, -167.18430240418468, 51.35266812002101, 9.70192794060722, -18.479405310711826, 20.967639638883725, -129.27120159688525, 50.46480898942144, 24.094116090910987, -27.558953764631582, 3.2361191862855776, 7.439477961723014, 34.48692335026428, -17.48678380613103, 37.85744913296119, 29.03490606724212, -14.753774342724434, 16.157452414540444, -42.40102339446992, 1.3778240540539697, 23.69826299084454, 16.85038829788077, -15.921046335094065, -32.57491953074836, -10.844040851707263, 9.865097952799204, 5.797179625816682, 10.864940112652675, 10.607560361954281, 1.6975538352993595, 1.5332393403817832, -1.019017748729425, 4.171182884876487, 16.2234851435579, -0.10183347737256554, 19.251879240316455, -4.606711611289871, -13.691974428621563, 7.828860804657921, 3.9821213437509186, 5.699678073819001, -4.407301730493913, 5.175866945699454, 7.356237054377964, 13.265926183062973, 10.234134327099778, -2.4293948533596783, -17.653851127534494, -0.0638325189695621, 15.245782007568394, -7.234065351131502, 4.363272879814264, 3.131973544866611, 3.7808475840296936, 6.698585204027896, 13.024178103483173, 4.07795916767358, -2.7368593513023, 4.861649382984439, 3.0307762642667484, -7.425978430432451, -4.800243016672994, 5.5343590227845, 1.2142779902246374, 0.8737077882461222, -1.899701430423903, 2.448098102200447, 3.4737598102698612, -3.023393660962215, 1.096123763495287, 0.9806509236257437, -3.495159959307312, -3.8362293454883183, 0.0027318624850920514, -3.5482175471802293, -0.9910283039774797]",-5.297714285714285,-3.4170000000000003,-5.55,-3.83,1.0,o-DCB,_,25.0,MoOx,ZnO,2.3,2.28,0.92,5.63,44.0
"[-105631.73783275932, -74572.73247403272, 4329.753734020427, -2341.4243576849567, -5555.485216633641, -172.87819728700106, -798.6979620852667, 856.8010146047068, -1780.8026309386028, 649.5717848685752, 65.62447326392157, 388.30062073400836, -353.1258883999071, -137.697950651705, 31.52142203119479, -106.39355730444561, 81.98057692092414, -63.14138686604906, 66.8688432765725, -31.850017336689234, -14.562814664564094, -114.9941249091529, 19.27422754978045, 6.86920436049806, -13.362968611123335, -88.88424698589336, -9.680549433746734, -6.256532059762719, -19.287322586292646, 30.85187752382363, -0.060728621664203786, -1.7204165771485123, 18.096287928493183, -5.394264557244732, 40.036620565000476, -33.18107886987201, 2.1644049971745574, -3.5496157331860445, 9.702406188567533, -7.574832588501394, 9.796433451870143, 2.157829321761511, -3.1218789726135014, 6.6756247366353705, -7.1588684345745435, -6.697268175137552, -1.4052090508045652, -1.9646060063565116, -5.4204105421624575, 3.32941670679557, -3.8499636318233144, -4.615352531498566, -0.07975953344401887, 3.391194367932755, -4.106358123047258, 1.501503218822819, 0.9563824343184066, -2.6973013366915453, 0.8798263076499495, -1.2664639901547048, 1.2677471291641744, 0.13775840341868673, -2.0083004655011223, 2.233635675897844, -1.9092080674585787, 1.3281780039048954, 1.7708225501106938, 0.11723884380987926, -0.7217945654510771, 0.020674104910288094, 0.6321921645490995, -0.12750860712933587, -0.7324806057772388, 0.387690081710673, 0.5704773577055064, -0.5561048571084157, 0.13303415142318897, -0.39533728660630274, -0.19314666767595423, -0.17136554860633169, -0.3105600644218782, 0.09227497024608411, 0.3640581811437116, 0.12456153887661969, -0.4900314009409783, -0.2105542507325282, -0.11287961723428896, -0.4896110545300445, -0.2576249538547408, 0.020036158749878297, 0.19004174677945684, 0.43512588848888356, -0.15984926722186188, -0.03699898168409543, -0.16184812575650298, -0.018640178199959223, -0.06970965394751483, 0.02644608400954951, 0.4184249457529603, 0.06710147780425979, -0.1455202420919477, -0.027435290436191195, 0.055771972451445606, -0.09475802435058256, 0.24207868559446766, -0.05282116924259128, -0.1882724966860181, -0.05346045629421603, -0.10831494984240475, -0.0036262226167114164, -0.026380022030597416, 0.020118181288705017, 0.03512820925391846, 0.029024371883522804, -0.050134402663047695, 0.01941571781524054, 0.00820689833365762, 0.059280726425585684, -0.07718365209846922, -0.05673269250273272, 0.03097365628437565, 0.0007247489018915587, 0.008388415516517256, 0.019782146741892603, 0.003491413958400358, 0.005668303566913835, 0.008251200563019978, 0.015433351818131769, -33884.112693773684, -4325.184359052594, -14340.26905115353, 2007.251073958894, -3416.2048725689638, 1222.8013796982232, -315.8891404460362, -1209.0003422391364, -479.157471390153, -846.8417237206303, -623.4621954709284, 49.11871387883875, -52.80984495182999, 108.73480740674395, 176.87033808776283, -1014.8875048730074, -107.49151276022981, 82.05320392374176, -67.69506540365973, -246.72360824145727, 242.88467125290478, -282.64798581024866, -295.04426385405276, -259.9606678804771, 105.64064058300121, 3.7224163553194316, 50.756932727510446, 214.61038724942264, -45.85759770052486, 1.5543167638779032, -49.486312307058384, -26.107206673394472, -18.291024258009852, -50.03069245598829, -8.872424036426331, 28.672660062880027, -50.01728587052701, -37.268468960789036, 58.603415775361235, 13.279656222096957, -66.24592258025966, -38.93772240900555, -31.719181915114543, -94.58093926873183, -6.766471695179641, -3.363622896131081, -31.201453692809032, -4.95911600091976, 111.59390960085807, 29.289215649385348, -3.31853542011776, -64.1157617508615, -72.61222089521124, -52.100798063148055, 28.04630084350424, -38.28027070307531, -8.982149731281794, -33.85298643322331, 31.416567076350884, 2.9048365057967267, -49.388916130287896, -10.31052881673747, -24.075700857989148, -5.114430988863174, 26.89877491017146, -15.216585432467935, -14.285684496238849, -16.437818160152297, 9.680053573635425, -2.6837940530605273, -8.486485843671979, -1.059633710630719, 2.435106984506704, -1.0327311915276884, -4.356144572029855, 2.75231636664817, 0.15375009839298537, 5.796968252661754, -2.7233007469611534, 7.672497114267404, 8.215519435206215, -6.670095375169689, -1.3089257338124924, 5.315751880652737, -0.20631711906609418, -7.0341197808797205, 7.1430002308670435, -0.25811693944985414, 2.2574696034252972, 1.1718343520937187, -8.048370179534349, 5.953223044968458, -6.400048511224846, -3.3637161941136586, 0.6234940397763604, -2.6676819652986263, -1.680766698028041, -0.28911779624467737, 0.2552770579928264, -1.1083569224325167, -3.5156734347527214, 2.3370026364321754, -1.564871613839314, -0.954843102776151, 2.159817929850477, 2.905717891643671, 3.0581193847981702, -2.690706710589622, 1.5120610775386814, -1.292925514859295, 0.4718949395634997, 1.9729082708474146, 0.00012693829488341635, -2.2712444582919264, 2.0234400983528857, 1.9317211972038715, 0.9687122195119109, 2.4566556667747794, -1.7054196228616432, -0.6551155116260472, -0.28086548727711946, -2.895312963713458, 0.49361028584531175, -0.6887634115949808, 1.5860997323096349, -1.2741094632294683, -0.5282692616739819, -1.6386938885447742]",-5.204782608695651,-3.5391891891891896,-5.54,-3.9,0.667,CF,_,25.0,MoOx,ZnO,8.09,8.09,0.763,16.8,63.1
"[-105631.73783275932, -74572.73247403272, 4329.753734020427, -2341.4243576849567, -5555.485216633641, -172.87819728700106, -798.6979620852667, 856.8010146047068, -1780.8026309386028, 649.5717848685752, 65.62447326392157, 388.30062073400836, -353.1258883999071, -137.697950651705, 31.52142203119479, -106.39355730444561, 81.98057692092414, -63.14138686604906, 66.8688432765725, -31.850017336689234, -14.562814664564094, -114.9941249091529, 19.27422754978045, 6.86920436049806, -13.362968611123335, -88.88424698589336, -9.680549433746734, -6.256532059762719, -19.287322586292646, 30.85187752382363, -0.060728621664203786, -1.7204165771485123, 18.096287928493183, -5.394264557244732, 40.036620565000476, -33.18107886987201, 2.1644049971745574, -3.5496157331860445, 9.702406188567533, -7.574832588501394, 9.796433451870143, 2.157829321761511, -3.1218789726135014, 6.6756247366353705, -7.1588684345745435, -6.697268175137552, -1.4052090508045652, -1.9646060063565116, -5.4204105421624575, 3.32941670679557, -3.8499636318233144, -4.615352531498566, -0.07975953344401887, 3.391194367932755, -4.106358123047258, 1.501503218822819, 0.9563824343184066, -2.6973013366915453, 0.8798263076499495, -1.2664639901547048, 1.2677471291641744, 0.13775840341868673, -2.0083004655011223, 2.233635675897844, -1.9092080674585787, 1.3281780039048954, 1.7708225501106938, 0.11723884380987926, -0.7217945654510771, 0.020674104910288094, 0.6321921645490995, -0.12750860712933587, -0.7324806057772388, 0.387690081710673, 0.5704773577055064, -0.5561048571084157, 0.13303415142318897, -0.39533728660630274, -0.19314666767595423, -0.17136554860633169, -0.3105600644218782, 0.09227497024608411, 0.3640581811437116, 0.12456153887661969, -0.4900314009409783, -0.2105542507325282, -0.11287961723428896, -0.4896110545300445, -0.2576249538547408, 0.020036158749878297, 0.19004174677945684, 0.43512588848888356, -0.15984926722186188, -0.03699898168409543, -0.16184812575650298, -0.018640178199959223, -0.06970965394751483, 0.02644608400954951, 0.4184249457529603, 0.06710147780425979, -0.1455202420919477, -0.027435290436191195, 0.055771972451445606, -0.09475802435058256, 0.24207868559446766, -0.05282116924259128, -0.1882724966860181, -0.05346045629421603, -0.10831494984240475, -0.0036262226167114164, -0.026380022030597416, 0.020118181288705017, 0.03512820925391846, 0.029024371883522804, -0.050134402663047695, 0.01941571781524054, 0.00820689833365762, 0.059280726425585684, -0.07718365209846922, -0.05673269250273272, 0.03097365628437565, 0.0007247489018915587, 0.008388415516517256, 0.019782146741892603, 0.003491413958400358, 0.005668303566913835, 0.008251200563019978, 0.015433351818131769, -24525.696494274474, -2636.7622369946566, -30133.325986290565, 3248.138330891046, -98.92126974535148, 6830.086407779945, 2494.0704455229943, 5055.515614887365, -717.3712763634239, -3558.707999323668, -2356.807058341532, -1489.5154391087847, 2380.85258764503, 411.1298105146941, -343.47189440667466, 1353.5261239786034, -641.5636852044374, 754.4740241043071, -348.66059081693345, 16.922209679869898, 726.0437791102787, 454.4452788949701, 180.86582137332928, -1.2176809574503267, -268.0671388433654, 406.71105529909715, 55.74088438868729, -119.38966684465304, -232.43655361414068, 469.18354705214085, -241.1883461863499, -107.72862837320515, -327.8401151210888, -185.33280705460402, 91.62542062893885, 246.93848122169913, -102.90780789617185, -47.940582105773714, 60.82019820952292, -37.57500413495487, -22.861938867308115, -49.83133781016456, 22.376364720853125, -115.95286643403925, -73.53654868680832, 32.40936829652941, 4.949279483859258, -29.35972690456764, 113.13600888587419, 24.91668734553985, 25.159976018682787, -28.344380816956654, -52.16738527021591, -93.18667127385936, 12.50546021869139, -29.35794602000912, 4.436500183347716, -40.92733876119291, 41.454399306216516, 23.005405360754168, -33.84533965419616, -50.19543245583505, 10.0300808940396, -28.61204461906224, 2.892513872368232, -12.796042151564082, 6.744993387813535, -28.97731376790692, 11.941025135517185, -23.520291679259707, -3.7031509594253906, -18.00341657227196, -12.630526954821615, -4.038846653788692, -0.8364858753782844, -12.207400562446717, 2.160611707773058, 0.6547550626506661, -15.911700656723788, 0.5931836612446704, -0.997121495549735, -8.74798873330029, -0.6841434399781479, 1.633908843341803, 0.04038880275852019, -2.3670994805381103, -7.934679317335232, -5.18703433843583, -6.317512123270998, -3.9654498010472823, -4.632129313031805, -1.9883167112673976, 0.15984262422324647, 1.6589012374307783, -2.445836321875806, -3.3306857595910606, -1.052182165244025, -4.152774207233458, 5.369677627745852, -3.28178142615155, -3.140409028244009, 2.002709331021742, 0.607311161175633, -2.257217175015313, -0.5733361296733701, -5.369813741506969, 1.9217646190880213, -2.3542281380181738, 4.443279193633124, 2.008945613289843, 3.9509301853728065, 4.193059893580228, 1.8801556912670696, 2.4195195191300893, -1.933831158346199, 0.9364598303627325, -0.9643984103130632, 1.61718029682782, 0.014358838480525327, 1.1944050922957636, 1.6910220627651302, -0.3102078015802854, -0.42189771284698985, -1.6449578083858905, -1.8762834849951258, -0.6430851568023872, -0.5254083690646487, 1.6977509553315349]",-5.204782608695651,-3.5391891891891896,-5.36,-3.92,0.667,CF,_,25.0,MoOx,ZnO,12.0,11.97,0.743,24.0,67.1