DA_mordred_pca,HOMO_D_eV,LUMO_D_eV,HOMO_A_eV,LUMO_A_eV,D_A_ratio_m_m,solvent,solvent_additive,annealing_temperature,hole_contact_layer,electron_contact_layer,PCE_percent,calc_PCE_percent,Voc_V,Jsc_mA_cm_pow_neg2,FF_percent
"[209393.17544281713, -116743.26108052729, -2433.5732380145723, 5860.497313930909, -10911.893440300095, 1460.2280764479742, -2180.789197602689, -882.929110807383, 5495.0793233009035, -4102.046918768369, -2606.7135386797327, 1389.8791186634162, -826.9444325016079, -1793.0124964296433, -768.24584261999, -403.0035949281075, -772.0762773015604, -236.71483888612522, -342.54287826081713, 655.1844063131442, 983.2049258852126, -16.213572981848017, -129.14596897800322, 202.96251087363865, 466.1926313981226, 1274.272560223619, 224.66559951496896, 561.9637729878912, 673.3137648147515, -168.1797634301281, -95.59421702489824, -249.14742227519216, -36.54464657429938, 19.42680892524043, 472.0573640889546, -11.116934394004318, 28.45922292667661, 282.9043161216853, -218.32842332800038, 59.58989613900518, 97.04221152401831, 169.5861195208035, -98.78874939563335, 89.46971155311766, 37.2100713928875, 31.258144011056757, 7.440131206531177, -117.74371105867074, -18.293790473901097, 43.93746472270624, -61.53438078353928, 40.27334903873047, 22.898094773654574, 3.0421629831752313, -27.8186818063133, -12.49144020233883, 2.5760598775118453, 21.039569760508343, -45.48008578138976, 6.062323685109959, -25.76907607009703, 2.3243045239532023, 3.3233711140376556, 0.8978012778811149, -3.519774000225789, -11.704045812798256, 6.313789272132183, 10.019981660823568, -2.9490250199907138, -14.668818712329342, -3.751208162975221, -10.818489545004603, -5.79998889104415, 2.3632642399416994, -12.517864374751603, 3.076448242573811, -9.21364160823805, 7.279825820797091, 7.825450704239813, 8.308112700943859, 2.82885481127758, -3.3488083618112405, 9.488005793357477, -3.468873993527893, -5.212233197909775, -2.0524449234600723, -4.720016000611346, -2.7498260606941543, -0.9791691553466237, -0.36242856096381537, 0.6956098781068221, 0.2414981797821305, -1.131832308423256, -3.106358139337342, -2.003568593169991, -2.0551637221415504, -4.013126553218668, 0.2948256774521454, -0.20881639584477085, -2.0445094695913584, 3.1159823885260494, 1.528106265627157, -0.24023836068109006, -0.9718667853782712, -0.5616499023915764, -2.2764578686121872, 2.5508585658918363, -1.2852665949995874, 0.32785211939481673, -0.7755115957555319, 1.3660478441694686, 0.07801822428653304, 1.2032550280915544, 1.5507628362968155, -0.427400433874908, 0.7911464524782339, -0.05074323109855072, 0.35689470852841954, 0.22345498626502902, 0.6865086254877157, 0.9476216386060301, -1.0179402211048476, -0.3292724588415332, -0.28700723422861074, -0.3059164905757257, -0.1720141116871119, 0.05966791824900497, -0.2687988695059751, 2025991.8157348256, -269585.9776970003, 32353.998051239356, 32350.985536284392, -5579.008020213716, -7161.341349290684, 16009.182730522334, 391.9647185139871, -6937.414852767452, -765.672708953688, 8542.060875769033, -2684.2708583376357, 4066.1064767974376, -2047.7376276399905, 68.34365417838643, -1906.2843699586338, 630.4738107298926, 832.4802566362199, 583.4290742590754, 1336.6085810992752, -2161.9394764667322, 77.8026816569477, 444.9589511136656, 1559.2630433840243, 1868.0973000320323, 460.5401310885161, 941.1461860972981, -152.4163416610515, -739.2314727814742, -971.7959443039524, 42.640283563334975, 1089.0043574802862, -1103.1459130677927, 641.3560552706994, 1059.570543892737, 884.7062715825351, 60.10501378699479, 647.3716160600983, 384.4234557559426, 567.7936951774569, 193.58323580416578, 480.18856112512367, -216.5159094134292, -225.18147736631687, 74.89498093830413, -90.89043128706432, -4.855871762418047, -29.572605317158754, 106.93714551961773, 47.04385891968964, 79.14448467167085, -9.473316436330506, -21.28226436436381, -40.59167873654526, -8.762118776901701, 3.7024402273683776, 12.852688190471941, 72.1050200544454, 27.40806352146103, 12.823631884800093, 3.809116742316103, -1.3303405924544514, 39.02640567214631, -37.92494222479142, -3.524058094441571, -15.293616572519669, -40.332795274423894, -17.16738322655588, 15.520919356261727, -22.383057263412887, -8.892922971194256, 0.11175722834438151, 23.068151849760085, -3.307486546360084, -4.1156122681784435, 3.9159930852837235, 4.824826734953852, 5.01131595037306, 21.661236679599504, -1.7595569196390493, 0.29825194090265406, -0.11188277874807895, -7.288439782811054, -1.135221807207003, -4.019313420326242, -0.06672449225213128, -7.71855814393236, -2.8546604518602834, 2.4630016380650903, 10.596563073548019, 11.22114527801423, 7.695468257975136, -1.168006574070958, -2.44777301353119, -3.763846159966443, 13.5371308674343, 4.2289345911809555, 1.745481463133709, 0.2525456831914794, 2.8849106286028814, 4.130496095007806, -2.342272708236587, 0.9226208774403872, -2.3979688853543113, -4.176456432961347, 6.0082612071525165, -1.2109723076612822, 1.5740002949378695, -0.045735192901274146, -0.8691070500877913, -1.2825848143263308, -2.308287069294815, -0.7045334436297424, -0.41532240001428633, -2.387635167238953, 0.8774312635464554, -2.5908549166544166, 0.3640237496687533, -1.3357778091046342, -0.9113332267385541, 1.077782261450333, 1.7475448666053386, 2.3293581742299967, 4.83215289120234, 0.9782192829429013, -3.639270486407578, -0.7959456215978005, 0.4787270133227679]",-5.1,-3.48,-5.27,-4.0,0.5,CF,DIO,25.0,PEDOT:PSS,PFN-Br,4.89,4.89,0.83,10.53,56.0
"[209393.17544281713, -116743.26108052729, -2433.5732380145723, 5860.497313930909, -10911.893440300095, 1460.2280764479742, -2180.789197602689, -882.929110807383, 5495.0793233009035, -4102.046918768369, -2606.7135386797327, 1389.8791186634162, -826.9444325016079, -1793.0124964296433, -768.24584261999, -403.0035949281075, -772.0762773015604, -236.71483888612522, -342.54287826081713, 655.1844063131442, 983.2049258852126, -16.213572981848017, -129.14596897800322, 202.96251087363865, 466.1926313981226, 1274.272560223619, 224.66559951496896, 561.9637729878912, 673.3137648147515, -168.1797634301281, -95.59421702489824, -249.14742227519216, -36.54464657429938, 19.42680892524043, 472.0573640889546, -11.116934394004318, 28.45922292667661, 282.9043161216853, -218.32842332800038, 59.58989613900518, 97.04221152401831, 169.5861195208035, -98.78874939563335, 89.46971155311766, 37.2100713928875, 31.258144011056757, 7.440131206531177, -117.74371105867074, -18.293790473901097, 43.93746472270624, -61.53438078353928, 40.27334903873047, 22.898094773654574, 3.0421629831752313, -27.8186818063133, -12.49144020233883, 2.5760598775118453, 21.039569760508343, -45.48008578138976, 6.062323685109959, -25.76907607009703, 2.3243045239532023, 3.3233711140376556, 0.8978012778811149, -3.519774000225789, -11.704045812798256, 6.313789272132183, 10.019981660823568, -2.9490250199907138, -14.668818712329342, -3.751208162975221, -10.818489545004603, -5.79998889104415, 2.3632642399416994, -12.517864374751603, 3.076448242573811, -9.21364160823805, 7.279825820797091, 7.825450704239813, 8.308112700943859, 2.82885481127758, -3.3488083618112405, 9.488005793357477, -3.468873993527893, -5.212233197909775, -2.0524449234600723, -4.720016000611346, -2.7498260606941543, -0.9791691553466237, -0.36242856096381537, 0.6956098781068221, 0.2414981797821305, -1.131832308423256, -3.106358139337342, -2.003568593169991, -2.0551637221415504, -4.013126553218668, 0.2948256774521454, -0.20881639584477085, -2.0445094695913584, 3.1159823885260494, 1.528106265627157, -0.24023836068109006, -0.9718667853782712, -0.5616499023915764, -2.2764578686121872, 2.5508585658918363, -1.2852665949995874, 0.32785211939481673, -0.7755115957555319, 1.3660478441694686, 0.07801822428653304, 1.2032550280915544, 1.5507628362968155, -0.427400433874908, 0.7911464524782339, -0.05074323109855072, 0.35689470852841954, 0.22345498626502902, 0.6865086254877157, 0.9476216386060301, -1.0179402211048476, -0.3292724588415332, -0.28700723422861074, -0.3059164905757257, -0.1720141116871119, 0.05966791824900497, -0.2687988695059751, -44628.80359898145, -14188.869262942188, 14094.085713933286, -15937.198466155442, 14329.385756915714, -4397.138050143507, 2658.263438541375, 5596.813242363223, -3052.0822077295643, -2795.3774526370044, 6455.864968213707, 445.97514958366753, 1209.1745554798417, -1339.383997782787, -3218.9131311057286, 1547.5035068704383, 951.7584911113765, 695.2977580959457, 2559.4919901921967, -485.19800586338044, -1523.5002415663455, 72.35116190798095, 163.4022841348358, -674.277125246025, 648.8681607780937, -463.4949819749555, 93.02926876120611, 179.2315804044994, -192.35012663210094, -61.40843944673777, -355.55258682328883, 280.16424123356234, 57.2065784598724, -271.171383281663, 276.2076777005399, 427.3850619874353, -574.5982450540612, -249.72055405441267, -75.31634636331707, -112.39455870268442, 289.9319598025755, -124.59404573414436, 393.598400675152, 227.74687777741408, -81.69997422570205, 149.3357380979797, 184.0390862507248, 34.59253306092682, 132.8306561233655, -52.61526309421105, -190.8030585488478, -36.19902340511045, -57.38248625077611, -93.34849012306441, -33.25894971073476, -39.50362351579862, 50.51301312887063, 14.442895244641456, 27.583255816301808, -52.69601285791616, 2.5124055832129564, 55.88142615451662, -9.640069289033924, 95.37058985143616, 43.38630120943696, 83.13040154065946, -2.131504162313578, -18.75548018108406, -3.4430289934618963, 47.043646900656604, 30.354215433166672, 15.753956440594738, 9.009598854555586, -43.832749772342275, -23.27593133220885, -21.285455548416536, 6.49349928771237, 1.1357423265203908, 4.2954703614656395, 14.557487138812888, -5.1740548568599, -6.606321383786101, -41.336290535628244, 1.0442925207875504, 5.520470158739666, 0.788553851823742, 8.65116275526207, -12.734479787072921, -5.47685250995433, 15.436247262103208, 4.376989028507498, 22.993637582875895, 7.68556288387538, -10.218462078447097, -8.891136269396336, 5.416924141953402, 7.954917946244073, 2.507204869428456, 4.497314210828027, -0.25905203432725443, 4.591817829444498, -3.7659140404534575, -6.443947361278735, -3.943087559666477, 0.3416850068418289, 2.4802234379275507, 4.488556233339522, 9.345634173254066, 1.9802971310959183, 6.836249280210043, 2.1771497730340563, 3.710343405021957, 2.249058726182282, 3.4611627776573073, 0.17768412935164424, 0.5237127714545513, 2.09154012527034, -2.7697121331858394, -5.18990872070742, -2.208213486185386, -2.457770200928827, 4.224002545274487, -4.765433915696773, -4.8989912708693, -0.8026758328282799, 1.7675409698964477, 1.094659637897681, 3.4351714334084282]",-5.1,-3.48,-5.24,-4.05,0.5,CF,DIO,25.0,PEDOT:PSS,PFN-Br,6.94,6.94,0.8,13.77,63.0
"[-107423.09370752568, -75573.72491442433, 2691.8991779816492, -4359.288094612307, -3859.7433060644207, -1847.8519273013371, -1889.0743954606046, 1536.351734759291, -2038.0020710130102, -250.9250961308735, -579.2097281665674, -1138.371813353039, 204.28165435409824, 1120.5263493763962, 317.06596906400245, 630.8686331437411, 889.6374051675624, -388.76071594011614, 265.08924938685357, 87.46695323995448, -290.4277077541242, 118.52734543177048, -21.841302941700178, -79.92039500364967, -106.80509476698319, 390.7242110606642, 95.91012287047195, -154.9672961555753, 45.522833100910816, 78.23126669788178, -159.1592313468504, 85.6466254427508, -164.79687745355793, -34.80586067308105, -145.24623919134763, 179.33804085231037, 10.870623860225791, 38.91769152893053, -101.24106298447285, 44.871537325894835, 55.99791494195627, 51.015982579172885, 66.35246456262726, 7.7204639955288314, -18.694005560727533, 38.41402220616827, -17.47776737016899, 36.31767454703578, 21.33878639572856, -58.52589480573931, 9.369963856855833, -16.767002774809704, 9.689020839144938, -5.982688485175302, 4.133014765113181, 36.426301770686116, 7.540154096546431, 27.53704738719575, -17.957480001463566, 16.557684498774563, -18.69000892493894, -7.08616041952439, 14.378467751852185, -12.217751194587123, -2.6161689295191373, -5.837523995624508, -2.1490044295476594, 10.056334922144082, 1.3501069728939399, 0.05224351803807892, -16.535605581159224, -5.6702918026516045, -3.8484012473147304, 4.929540958358878, -6.355948922614054, -3.800236085371594, -2.6256962495340304, 7.507438958084677, -3.157766304370318, -2.518426304965004, -2.749228669282047, -0.6468479501061353, -2.80624798789799, -2.2833956293754163, 0.28996019696587894, 2.3887575586119, -0.7819702132318955, 3.0193525969544197, 0.7428021200144546, 0.8279010023571232, 2.95785631266628, -2.205478006645592, 1.8411136289687953, 0.7345581680427404, 2.439750641051603, 0.36041177710603023, 1.30115670516924, 0.03257631952655515, -0.6483428695408122, -1.6363495221230844, 0.3118005621253772, -0.7354061353540793, 0.3136123038264351, 0.4911308715796139, 0.37365649741267415, -0.5496605495964104, 0.23560728430111055, 1.2528802085125612, -0.9492348233973082, 0.1705445119902258, 0.2171179919947761, 0.08546418885482687, -0.33474926070695243, -0.8540277896909174, -0.2842139993798014, -0.4709718253734998, 0.16880203515812653, 0.4692524371131013, 0.0006185463064909413, -0.18036026895958912, -0.2853763147508488, 0.0471983352172991, -0.3432022814872626, -0.09027095934164464, 0.12916310238986028, -0.2916012655567499, 0.18362146879040253, 0.1110090588083068, -22176.965888800954, 10652.149560623211, 9835.90940313353, -12463.068884198747, -13313.920461091799, -4152.655504692484, -7971.303542688178, 2765.1468080473023, 5128.645912787439, 2537.1371916896114, 2582.961453554335, 542.521074997481, 638.8915465874551, 151.96196775254515, -103.63946485572538, -397.49144737429253, 950.2266172357316, 1895.4369439660106, -391.99218905792645, -197.99996087504238, -392.83307517365427, -239.64152086141672, -934.9404094450678, -456.9033532737671, -310.3958912623476, 303.4343994207594, 342.206278945864, -303.26648420105903, -21.193263789284032, 141.48417140543597, -185.69357140292064, -156.2909833578364, -56.38730434224167, 135.0264462518413, 100.6102944528044, -145.15518035009111, 215.07299415362039, 302.88868957741096, 77.92338238472995, -7.15866804680951, 132.6484736666979, -60.28897565213993, 77.41743603556824, 63.53300302957808, 233.9007878511984, -97.42503716179968, 134.87187027274203, -65.90366301350522, -357.13036291923163, -38.72619152734703, 18.970083082742264, -61.23452021663817, -81.08312400493696, -70.2930440280513, -94.42572473399296, 71.08266642837168, -5.546109155338556, -57.94600410149727, -24.070526018433334, -30.524822200070517, -19.986446766765226, -0.907262691367932, -21.003464467132748, -39.272247903953456, 70.06754404036471, -1.575557307558599, -37.10936153806063, -23.605187196228343, -34.52429620990457, 27.21458901898859, 1.2552122228138813, -6.633964388429575, -22.713439211438825, 14.385618415408262, -29.36559832389578, 23.30274807738331, -13.120030218005095, 23.453866538166046, -0.18559233375174244, 52.628370127885425, -11.354690345270628, -6.063201135203631, -5.552310181260927, -9.573695259030373, -29.172502703719434, -4.8044980996102, -2.50468316151151, 17.49900860192964, 2.5036205653109747, -7.259478118026879, -13.982527073920672, -13.595275888877584, -12.481762073791012, 32.76786231075214, 31.9873236904657, 26.040293840679606, -11.228240865992685, -1.0507332281950914, -10.822200947571709, -12.602320163155518, -4.144160409586938, 2.440890061504412, 2.497389522391156, -13.392006207017438, 2.7710046525261447, 9.303067377069159, -0.656423208796928, -2.0949881644332287, -1.0385748939755075, -3.8439092481704034, 4.761684664692711, 5.673313005359672, 19.129800662685888, 4.2704895547294015, -0.02395112577784886, 0.6000132388689785, 0.38786548396781484, -5.0458367303177, -5.879301202494684, 1.9623957235326177, -0.09180808475217184, 5.937125368410735, -0.8353453026169433, 0.7822814842765684, -0.4135650460493814, 2.8410082394399634, -5.037176122830651, 4.677233724794555]",-5.128,-3.268,-5.44,-3.88,2.0,o-DCB,_,25.0,MoOx,PEIE,3.08,3.08,0.96,6.32,50.8