DA_mordred_pca,HOMO_D_eV,LUMO_D_eV,HOMO_A_eV,LUMO_A_eV,D_A_ratio_m_m,solvent,solvent_additive,annealing_temperature,hole_contact_layer,electron_contact_layer,PCE_percent,calc_PCE_percent,Voc_V,Jsc_mA_cm_pow_neg2,FF_percent
"[-91850.1013944251, -31.94532944595926, -13640.129141491467, 5099.048943614727, 7326.240889669503, 7684.43407108446, 1997.5494770357122, -703.3152267823559, -259.7450865929389, 436.92345434869816, 490.3794333956324, 774.5753002521705, -2022.4679685424287, -1987.4701536078055, 108.76625203341355, 104.60182730990317, -80.8059801199831, 518.8170348412508, 513.1853716948877, 15.26626321363915, 43.50341270921257, 48.27983655028392, -100.29142569674494, 104.9057912250179, 170.11567291119, -24.50881973822078, -109.0522832507805, -274.67003359230495, -26.845011636912957, -64.75688205459811, -109.96502227843183, 117.72488586437522, -74.05234933802795, -19.742306629134646, 8.210886499264518, 58.15026930634001, -2.0910308578646912, 1.6565080023191499, -42.627578711504825, -14.392497199742639, -40.03801206359397, -2.7404110728584747, 5.1152424033258015, 10.93175834662733, 7.17062172142435, -7.336682401094352, 12.335195137325176, 1.743859757755739, -11.045090774637238, -10.383896287752744, -5.08769084339689, -1.678110450983886, 2.874319989313248, 8.705711012017357, 3.459574045624098, 2.1486389571342643, 9.187302519778862, -2.839489944206351, -2.925919531500101, -0.7335914346383561, 2.651432306082293, -5.925503426319116, 3.6301310383623395, -2.688416150576783, -0.39163237962848996, 1.5394059466154877, 2.074358943660581, 2.5781307902480597, -1.110172042208525, 2.0531010681186173, -2.0110712717998815, -0.0013305089881772147, -1.8456419639238901, 1.054484185975348, -1.7743173691334029, 0.3866410347867113, 0.030670132991629018, -0.9639888106917067, -0.8888866294011472, -2.742182332770623, 0.10855259722772992, -0.018251501121850477, 0.7404327978632788, 0.6317846317399689, -0.9425030761764255, 0.20914888242955687, 0.027004723583202883, -0.18326034248701006, -0.007922551392209709, 0.29072379791069425, 0.023583823241565938, 0.14167009797399643, 0.09081391715623832, 0.26569816221827436, -0.19113427062095623, -0.15117296545027425, 0.4906741400137331, -0.11675473747599963, 0.15657728436579532, 0.023369801669616663, 0.22976643765362015, -0.13851454714771427, 0.452387254805809, 0.39827537908958455, -0.08806860875073019, -0.20101392348631597, -0.11813223291226427, 0.3178059037360166, 0.2183440404572612, -0.21518659747810887, 0.05295137879517142, 0.24798228239579956, 0.10020542758738127, 0.28166189335245306, -0.18857723602523713, 0.0641165806306252, -0.24958460306900254, -0.06013028960270761, -0.10211807341153367, 0.10979007872791535, -0.06399760348199623, 0.08022730449348625, -0.16750723788688926, -0.05023146720217753, 0.04339181601633779, -0.03946373517263346, -0.04765661365284746, 0.015093753317343833, -16392.997891046474, 109573.83726362363, -4482.401072848769, 5081.180523652674, 1948.865944633092, -1556.6102265644513, -4568.762308970916, 4679.1452319293885, 3684.2332577159823, -4052.7664980278496, -2313.550039171384, -2491.551929648774, 4747.808677751973, -1315.261643734012, -308.67161026664894, -1147.183133475842, 544.2478714464, -947.328893505161, 674.3505260839127, -493.7258048187905, -1325.128306434062, 249.7554537874637, -513.8942138790264, -813.0049245542496, -311.24004925860527, -174.75076587191245, 236.58450265039318, 398.2176663726426, 46.44240950654046, -676.5427245173296, 450.3446999992542, 280.49904779190047, 238.0449399041334, -196.4946415911843, -28.47862837301119, 179.0089094562158, 390.9773818162088, -16.32347468060823, -46.77925994730374, -11.607911652845246, -160.23987247989265, 290.0704206298111, -54.701360914225404, 181.22762593388563, 63.37887326680432, 27.477036772770404, -144.3981417183855, -76.44956654878631, 71.17523400952234, -5.5373859284746345, 44.3058211723178, 40.90990338056264, 25.449331474912043, -0.23678657819138493, 6.619560473822503, -13.506786510690318, -25.18969508223016, 13.18788955006039, -43.30930440909265, 9.652586268091, -2.5769560807434715, 4.3731034812126595, -20.320075681465127, 65.31964230994856, 24.165167973347508, 33.656386560060575, -9.871398389185382, 14.48503169079613, 8.07588913423266, 30.203257843063895, -13.102060053647001, 4.53061685302771, 4.0633486984708895, 3.3105606683530553, 21.85583019976749, 19.62762036772841, 13.339908048230473, -16.767801986616256, 13.863160972157885, 12.670321552704664, -9.643517169697718, 14.732335335499457, -2.9989775579554916, -1.4787274600208775, 5.484592122867014, -13.714336747056691, 3.89873763155229, 4.198128578295879, 3.9241593421223246, 3.659188421143668, -15.892183540011288, 4.459694768755384, 18.720898929002445, 17.03156928162909, 2.1761091858945036, -6.028617531520922, 5.8225731815606, -10.226514578956161, 3.6689417419518353, 4.92967417054561, 1.2848751099655757, -9.128528515326582, -7.044684342718062, 1.88792777164619, 8.338973410362719, 3.2120259613853808, -4.923220990900274, 3.7529211861350227, -2.2968339304665957, 2.8653961786183118, -1.5738165923505356, -1.03596985662859, -0.444736689439992, -4.269553061355737, 2.6118175334788045, -1.1380432979219819, -0.11523709480695032, -0.6512674401720346, -2.925972534412743, -3.2469163674946415, -1.8593577932727845, -6.574019525335968, 4.038558807388716, 0.7208232203708356, -0.2653799938760155, -0.42038859249639415, 0.1053009328307013, -1.6384511095090737]",-5.43,-3.3200000000000003,-5.41,-3.78,0.667,CF,DIO,25.0,MoOx,ZnO,12.3,12.29,0.9,19.7,69.3
"[154256.7914909695, 55636.45883247154, 6514.203488369845, 10923.44869300549, -4186.310310918345, -4246.363376436994, 3641.4127437459592, 380.90096862775863, -2720.763909797469, -1718.8106125535414, 1166.7869516329265, -1968.6562320171572, 1.5936184835017002, 998.08901977806, 501.3287407302789, -931.6838610036386, -2004.1258664717284, 1231.039854946556, 146.32878721156027, 1013.3061850638037, 100.39069446398358, 224.30767837433842, -1291.3512535855023, -17.816243720809553, -575.2996733269317, -361.6211699704238, -11.091294485725541, 266.2276620213571, -319.5168225008645, -26.27505597775439, 101.64355600768, 13.058190266831048, 215.64082856756255, -282.16630112910696, -165.9870589704252, 172.94656521666843, -55.8394740650792, 29.20244933816815, -67.83411985637514, 142.9387368148856, -201.63679983593045, 51.50848236956301, -32.63156437441626, -27.324817353346873, 4.735652942956506, -9.859006361436045, 51.176725832011854, 8.077548805288473, -25.26495270593456, -29.23725431480102, -35.888376991518214, -54.348347885880656, 35.25889457825825, -20.314526523643877, -21.86798821754524, 6.956828569376441, 23.580701945593653, 38.962157682219505, -15.768517361490836, -4.217252757686197, -21.97144070494812, 20.395522395476007, -30.86165078518451, 7.7110714696765825, 0.2801570915528302, 34.606771668966175, -7.229370397460173, 3.6067542087531734, 32.948620497904926, -16.288015870127595, -6.26011247603919, 3.2824502558582793, -15.221482805094137, 6.570043073351464, -8.673537017465463, 9.608058983627657, 22.645714168872843, -7.606003026939884, -6.913028960328202, 5.952614873393486, 2.6314795424476927, -13.617670988013835, 11.42513520195751, 2.2654890560646166, -5.541512526895417, 3.11917706797513, -1.2310952044523913, 9.761067614390228, 1.2193100947198632, -3.2600914834919976, -4.911855591870292, -1.181304521723348, -8.533175698866039, -2.5917946197013526, 6.224846537701634, -2.0240191047519573, -0.8004065241749654, 1.7644587419488005, 3.2105285423782775, -5.133299147631182, 0.6592292727555176, 0.7816487994364323, 2.3268016854353206, -4.890101113998185, 0.9356302271016972, -1.0633515283292994, -2.45261887726528, 1.8164593348009141, -0.347114288669065, -2.847553561547521, -2.369456170743099, -0.8901548077667769, 1.1318764710257634, 0.976246102592679, 0.639533647302784, 0.6699760876821905, 0.7516044959163004, -1.8130206511805813, 1.233208079968577, -2.3852063561845505, -0.3227860081392322, -1.1619779585304002, 1.0777862066468273, -1.8460899288390138, 1.4949869339232436, -1.2654956954699514, -1.2801192074504453, -0.25299399942840495, -35133.7948384405, -8229.633002095004, -12056.006677875394, 2789.4971387186242, -6137.391894299175, 347.2184125819449, 313.56897363838834, -763.0529003245208, -753.2713027045285, -463.7277561870353, 442.3965848250751, 144.76451622384843, -82.11980750356622, -241.51593372271438, -166.11661214239564, 161.0117266220481, 156.82867720048182, 45.04865333330787, -64.48252064437057, -23.748315205729725, 175.35196382208807, 75.91403661606171, -286.96291437231935, 32.43950758749915, 86.82629792655737, 17.332913738685377, -52.109964316334626, 147.96654517479746, -66.74616426635947, -30.131339361474026, -64.6842293414586, -20.401781789495175, -60.814467118058936, -33.126806506498966, -10.042152655421425, -51.312256336249625, 3.144366245462294, -3.71627624153237, 36.40376072528973, 0.4548085410526568, 8.77647477218483, -28.125389876423775, 2.49569238193056, -12.913454340121639, 4.879924205036842, -2.3377624767900205, -6.672954601090133, 6.202739337502919, -10.893634984359561, 12.032465269856662, -12.063043989303566, -0.34303639091355365, 5.016332629152714, 0.12086901313429266, -9.726503251923347, 6.137316418082435, -7.076062334661124, 7.3653218625323404, 3.5070409455817924, 2.301233891752652, 4.71929931757742, -1.926768238609477, -5.728496834707801, 0.05692591901005528, -4.227503980921206, 0.19035190488374848, -0.8161738905036682, -0.4714746073762517, 0.016165936440852846, 1.5320458160517845, -3.625921731256579, -1.3255082942715024, 1.0395488339674301, -2.629665545987187, 0.2524077098567754, -0.25955818195747327, -0.9738252465763915, -0.4436497764515863, 0.3498051835956417, -0.5126149363315342, -1.3513245580317377, 0.2982577901396226, 2.0905817811936993, -1.423686297008441, -0.5684747340003078, 0.06286388557579237, 1.556243536792186, 0.47664310848808533, 1.3381005503037402, 1.3274012761810585, -0.18103683328045683, 0.13158711423599634, -0.35216959119522606, 0.24205021276454275, -0.19716096928100413, 0.3411096425350699, 0.8983261097286253, -0.17492589746772325, -0.26859509238574053, -0.13780411398829884, 0.2481245213135157, -0.23952231622609954, -0.5478870274515413, 0.5484971724321479, 0.500298126046161, -0.06133469645540579, -0.3248140481935957, 0.313231347131103, 0.63465776568537, 0.5975958356568718, -0.21144062004099506, -0.6749983329678217, -0.32992632468938865, 0.3033181272449559, -0.12238950451054809, 0.06097724241096092, 0.2639722379565246, -0.2236154184593273, 0.06848499166746613, -0.30866773947200965, -0.13429432396519503, -0.2605157287139417, 0.0014308004863301527, 0.11389554910299449, -0.08035043575031331, -0.3428563737769905, -0.05785525732550667, -0.006029155567380151]",-5.49,-3.7,-5.574146341463415,-3.915,1.0,THF,isopropanol,160.0,MoOx,ZnO,11.34,11.34,0.95,17.87,66.8
"[-47344.12229971381, 23594.10696163134, -5709.159125042373, 4348.051430368143, 2118.117304932317, 4707.296659828325, 5882.745764718254, 2682.591651747187, 55.90476192205483, -2202.1683301027724, 2802.211678470145, -126.18632247684843, -8.768751482809378, 1814.3088018689514, -1524.7402435337153, -1137.615312071998, -1913.0389527385023, -1157.3385324671015, -245.31255543149805, -726.2241620831255, -70.58115206937909, 93.18953926528333, -173.7924806316554, -218.2131263510501, -113.01176734082617, -404.83214995518085, 6.315597569265151, 73.09408604408682, -195.901819931769, -365.9341294594115, -50.58132321220042, 10.53842264291992, -96.57799022227127, 49.35658479207047, 69.87622513552716, 28.634833346576514, -66.09904012502945, 130.84795473612786, -23.660003210979994, 6.03557953067585, 152.4068815328355, -15.435546374598921, 56.92375457052593, 5.646045881560916, -112.67493665148876, 46.20582653033479, -65.98067287432232, -10.131355199777744, 22.771237757541925, -16.012157506490276, -2.628660909959894, 35.46061557918959, -33.312514935145735, 24.02046397509755, 6.879453442811096, 12.300726874631115, -0.5114684785150212, -14.984290752967961, -14.75759739762858, 41.36790364266643, -0.3000226636390382, 3.6198189450714935, -9.117679368313702, 7.967360612516384, 10.738830969315803, 4.861103099799699, 1.6405260726985844, 12.985712816735257, -1.5844558640551476, -1.594523379779539, 7.645316947192233, -2.0488720219451224, 1.1324684392102822, 8.801395601231924, -0.09881594482603795, 5.4965854462043495, 0.6191490279669907, -4.171901378962293, -6.002791358444094, -0.6026517028519862, 2.103434771680085, -1.0019148892059997, -1.7208130514212812, -0.027869844480084893, -2.2292877551052896, -1.9600835025238794, 1.413920521369605, -2.818047571810716, 0.9086292449071856, 0.37755523558527493, -0.30431629341031297, -0.04072605971024146, 0.22868696794805743, 1.1056160199251588, -1.4038276188719454, 1.9434434579894848, 0.5136345287390505, 0.07653268091012677, 1.124727726434763, 0.6016471890484907, 0.6693093749598198, -0.5006974404084037, 0.8417972685017912, -0.15845466505855654, 0.06258757310857144, -0.9331206452669729, -0.2768575022952131, -0.2324217520691203, -0.38309870311885963, -0.09634245139402853, -0.08417469248030951, 0.1674050565629756, 0.14597537319818388, -0.34187533164161676, -0.2862454740172993, -0.11512670159740424, 0.06331652198058357, 0.4706859522815743, 0.28824552789101876, -0.08541436390648069, -0.4965768290878376, 0.16756950335955878, 0.00080502416161643, 0.16071618057737425, 0.007830908657233238, 0.05411672777119669, 0.05985952411887152, -0.0892047534925915, -37754.164548048495, -19327.042529332553, -15096.940489656408, 5124.107716995979, -2154.6889828214166, 1154.9376605225696, 1225.2118962165387, -2116.4033669942964, 16.500482493262325, -1720.0642651725414, -760.1029011954531, -54.77246319097833, 217.44528576751952, 268.7169453870923, -262.71057769762945, 2081.913776897456, -873.5610183949954, 1357.4412985314614, 1054.818500898795, -34.19581816781712, 143.62778688039646, -141.87690890107496, -838.8494587502005, 168.34074185833325, 318.83367926612385, -380.45606262484546, 254.89445821479848, -30.339453091534484, -339.47549321221067, -179.96949248757863, 944.4708247420897, -86.19122413556865, 103.48052812283791, 236.29021809626656, -241.71363786973689, 151.6797874545058, -346.8995500163265, 49.24386285304729, 86.5851346766564, -77.5294777251572, 80.03961914625353, -72.9225371484754, 75.13789583005527, 41.28853113535645, 60.844977143676616, 37.14393038304006, -60.70218686509676, -116.3927317947664, 33.045199351876626, 31.109365015365377, 2.6467436187049103, 41.63691707150882, -36.2765127118376, 9.693841953856492, 3.9216480420155477, 14.561855139974107, -39.08230535168265, 17.1842811989196, 24.07565618396712, 0.955649516911393, -30.591365830128886, 20.00260200578805, 11.58020861750488, -8.49435984009073, 13.619330045874499, 21.355377823460458, -17.154710708494008, 11.017617007917785, 12.570276116311787, -5.67156394463424, 9.41932810368589, 12.505901876730915, 31.756153074795613, -21.743328066146724, 0.7921433595563743, -15.515239770107357, 6.869918621776785, -11.494396916177964, 8.11408329235615, -1.306084275912525, 11.64636333054139, -9.272785683069914, -1.5010147841781174, -4.289146846594747, 6.356619834967319, -1.8257329691289552, -12.281436319898422, 8.736543766461146, -2.4212124969293303, -2.996749100876027, -7.351645212273112, -7.673671029015495, -0.1174235984474521, 0.6546094236283793, 9.130058930783616, -1.0105393211578777, 6.480693927585847, -7.928213159709067, -0.115931891856909, -3.1882186678732225, 1.6202220306430561, -2.4197649292079877, 7.132517491487052, -4.2232763041721135, 2.6541404997097935, 6.1710455290790875, -4.151165304774768, 4.174127061777426, -3.0105771816961164, -4.7457002329064615, -4.066332901691378, -4.267053228793442, 5.793741811005358, -1.5774090898718554, 0.4992101764059482, -2.727724223387951, 0.709212760101849, 2.657898269528855, 9.130685313874622, 1.5023808678381907, -2.0814421644686187, -0.9497199510821095, -0.02457172280879938, -6.964924997495159, 4.736271494228836, 2.8269514984677926, 0.6126108528687588, 0.5993396958361128]",-5.36,-3.4200000000000004,-5.47,-3.76,1.0,CF,DIO,25.0,PEDOT:PSS,PFN-Br,10.4,10.41,1.0,15.54,67.0